ITEM: TIMESTEP
0
ITEM: NUMBER OF ATOMS
32000
ITEM: BOX BOUNDS pp pp pp
0 70.4
0 70.4
0 70.4
ITEM: ATOMS id x y z 
1 0 0 0 
2 1.76 1.76 0 
3 1.76 0 1.76 
4 0 1.76 1.76 
5 3.52 0 0 
8 3.52 1.76 1.76 
41 0 3.52 0 
43 1.76 3.52 1.76 
45 3.52 3.52 0 
201 0 0 3.52 
202 1.76 1.76 3.52 
205 3.52 0 3.52 
241 0 3.52 3.52 
245 3.52 3.52 3.52 
6 5.28 1.76 0 
7 5.28 0 1.76 
9 7.04 0 0 
12 7.04 1.76 1.76 
47 5.28 3.52 1.76 
49 7.04 3.52 0 
206 5.28 1.76 3.52 
209 7.04 0 3.52 
249 7.04 3.52 3.52 
10 8.8 1.76 0 
11 8.8 0 1.76 
51 8.8 3.52 1.76 
210 8.8 1.76 3.52 
13 10.56 0 0 
14 12.32 1.76 0 
15 12.32 0 1.76 
16 10.56 1.76 1.76 
17 14.08 0 0 
20 14.08 1.76 1.76 
53 10.56 3.52 0 
55 12.32 3.52 1.76 
57 14.08 3.52 0 
213 10.56 0 3.52 
214 12.32 1.76 3.52 
217 14.08 0 3.52 
253 10.56 3.52 3.52 
257 14.08 3.52 3.52 
18 15.84 1.76 0 
19 15.84 0 1.76 
59 15.84 3.52 1.76 
218 15.84 1.76 3.52 
21 17.6 0 0 
22 19.36 1.76 0 
23 19.36 0 1.76 
24 17.6 1.76 1.76 
61 17.6 3.52 0 
63 19.36 3.52 1.76 
221 17.6 0 3.52 
222 19.36 1.76 3.52 
261 17.6 3.52 3.52 
25 21.12 0 0 
26 22.88 1.76 0 
27 22.88 0 1.76 
28 21.12 1.76 1.76 
29 24.64 0 0 
32 24.64 1.76 1.76 
65 21.12 3.52 0 
67 22.88 3.52 1.76 
69 24.64 3.52 0 
225 21.12 0 3.52 
226 22.88 1.76 3.52 
229 24.64 0 3.52 
265 21.12 3.52 3.52 
269 24.64 3.52 3.52 
30 26.4 1.76 0 
31 26.4 0 1.76 
33 28.16 0 0 
36 28.16 1.76 1.76 
71 26.4 3.52 1.76 
73 28.16 3.52 0 
230 26.4 1.76 3.52 
233 28.16 0 3.52 
273 28.16 3.52 3.52 
34 29.92 1.76 0 
35 29.92 0 1.76 
37 31.68 0 0 
40 31.68 1.76 1.76 
75 29.92 3.52 1.76 
77 31.68 3.52 0 
234 29.92 1.76 3.52 
237 31.68 0 3.52 
277 31.68 3.52 3.52 
38 33.44 1.76 0 
39 33.44 0 1.76 
79 33.44 3.52 1.76 
238 33.44 1.76 3.52 
42 1.76 5.28 0 
44 0 5.28 1.76 
48 3.52 5.28 1.76 
81 0 7.04 0 
83 1.76 7.04 1.76 
85 3.52 7.04 0 
242 1.76 5.28 3.52 
281 0 7.04 3.52 
285 3.52 7.04 3.52 
46 5.28 5.28 0 
52 7.04 5.28 1.76 
87 5.28 7.04 1.76 
89 7.04 7.04 0 
246 5.28 5.28 3.52 
289 7.04 7.04 3.52 
50 8.8 5.28 0 
91 8.8 7.04 1.76 
250 8.8 5.28 3.52 
54 12.32 5.28 0 
56 10.56 5.28 1.76 
60 14.08 5.28 1.76 
93 10.56 7.04 0 
95 12.32 7.04 1.76 
97 14.08 7.04 0 
254 12.32 5.28 3.52 
293 10.56 7.04 3.52 
297 14.08 7.04 3.52 
58 15.84 5.28 0 
99 15.84 7.04 1.76 
258 15.84 5.28 3.52 
62 19.36 5.28 0 
64 17.6 5.28 1.76 
101 17.6 7.04 0 
103 19.36 7.04 1.76 
262 19.36 5.28 3.52 
301 17.6 7.04 3.52 
66 22.88 5.28 0 
68 21.12 5.28 1.76 
72 24.64 5.28 1.76 
105 21.12 7.04 0 
107 22.88 7.04 1.76 
109 24.64 7.04 0 
266 22.88 5.28 3.52 
305 21.12 7.04 3.52 
309 24.64 7.04 3.52 
70 26.4 5.28 0 
76 28.16 5.28 1.76 
111 26.4 7.04 1.76 
113 28.16 7.04 0 
270 26.4 5.28 3.52 
313 28.16 7.04 3.52 
74 29.92 5.28 0 
80 31.68 5.28 1.76 
115 29.92 7.04 1.76 
117 31.68 7.04 0 
274 29.92 5.28 3.52 
317 31.68 7.04 3.52 
78 33.44 5.28 0 
119 33.44 7.04 1.76 
278 33.44 5.28 3.52 
82 1.76 8.8 0 
84 0 8.8 1.76 
88 3.52 8.8 1.76 
282 1.76 8.8 3.52 
86 5.28 8.8 0 
92 7.04 8.8 1.76 
286 5.28 8.8 3.52 
90 8.8 8.8 0 
290 8.8 8.8 3.52 
94 12.32 8.8 0 
96 10.56 8.8 1.76 
100 14.08 8.8 1.76 
294 12.32 8.8 3.52 
98 15.84 8.8 0 
298 15.84 8.8 3.52 
102 19.36 8.8 0 
104 17.6 8.8 1.76 
302 19.36 8.8 3.52 
106 22.88 8.8 0 
108 21.12 8.8 1.76 
112 24.64 8.8 1.76 
306 22.88 8.8 3.52 
110 26.4 8.8 0 
116 28.16 8.8 1.76 
310 26.4 8.8 3.52 
114 29.92 8.8 0 
120 31.68 8.8 1.76 
314 29.92 8.8 3.52 
118 33.44 8.8 0 
318 33.44 8.8 3.52 
121 0 10.56 0 
122 1.76 12.32 0 
123 1.76 10.56 1.76 
124 0 12.32 1.76 
125 3.52 10.56 0 
128 3.52 12.32 1.76 
161 0 14.08 0 
163 1.76 14.08 1.76 
165 3.52 14.08 0 
321 0 10.56 3.52 
322 1.76 12.32 3.52 
325 3.52 10.56 3.52 
361 0 14.08 3.52 
365 3.52 14.08 3.52 
126 5.28 12.32 0 
127 5.28 10.56 1.76 
129 7.04 10.56 0 
132 7.04 12.32 1.76 
167 5.28 14.08 1.76 
169 7.04 14.08 0 
326 5.28 12.32 3.52 
329 7.04 10.56 3.52 
369 7.04 14.08 3.52 
130 8.8 12.32 0 
131 8.8 10.56 1.76 
171 8.8 14.08 1.76 
330 8.8 12.32 3.52 
133 10.56 10.56 0 
134 12.32 12.32 0 
135 12.32 10.56 1.76 
136 10.56 12.32 1.76 
137 14.08 10.56 0 
140 14.08 12.32 1.76 
173 10.56 14.08 0 
175 12.32 14.08 1.76 
177 14.08 14.08 0 
333 10.56 10.56 3.52 
334 12.32 12.32 3.52 
337 14.08 10.56 3.52 
373 10.56 14.08 3.52 
377 14.08 14.08 3.52 
138 15.84 12.32 0 
139 15.84 10.56 1.76 
179 15.84 14.08 1.76 
338 15.84 12.32 3.52 
141 17.6 10.56 0 
142 19.36 12.32 0 
143 19.36 10.56 1.76 
144 17.6 12.32 1.76 
181 17.6 14.08 0 
183 19.36 14.08 1.76 
341 17.6 10.56 3.52 
342 19.36 12.32 3.52 
381 17.6 14.08 3.52 
145 21.12 10.56 0 
146 22.88 12.32 0 
147 22.88 10.56 1.76 
148 21.12 12.32 1.76 
149 24.64 10.56 0 
152 24.64 12.32 1.76 
185 21.12 14.08 0 
187 22.88 14.08 1.76 
189 24.64 14.08 0 
345 21.12 10.56 3.52 
346 22.88 12.32 3.52 
349 24.64 10.56 3.52 
385 21.12 14.08 3.52 
389 24.64 14.08 3.52 
150 26.4 12.32 0 
151 26.4 10.56 1.76 
153 28.16 10.56 0 
156 28.16 12.32 1.76 
191 26.4 14.08 1.76 
193 28.16 14.08 0 
350 26.4 12.32 3.52 
353 28.16 10.56 3.52 
393 28.16 14.08 3.52 
154 29.92 12.32 0 
155 29.92 10.56 1.76 
157 31.68 10.56 0 
160 31.68 12.32 1.76 
195 29.92 14.08 1.76 
197 31.68 14.08 0 
354 29.92 12.32 3.52 
357 31.68 10.56 3.52 
397 31.68 14.08 3.52 
158 33.44 12.32 0 
159 33.44 10.56 1.76 
199 33.44 14.08 1.76 
358 33.44 12.32 3.52 
162 1.76 15.84 0 
164 0 15.84 1.76 
168 3.52 15.84 1.76 
362 1.76 15.84 3.52 
166 5.28 15.84 0 
172 7.04 15.84 1.76 
366 5.28 15.84 3.52 
170 8.8 15.84 0 
370 8.8 15.84 3.52 
174 12.32 15.84 0 
176 10.56 15.84 1.76 
180 14.08 15.84 1.76 
374 12.32 15.84 3.52 
178 15.84 15.84 0 
378 15.84 15.84 3.52 
182 19.36 15.84 0 
184 17.6 15.84 1.76 
382 19.36 15.84 3.52 
186 22.88 15.84 0 
188 21.12 15.84 1.76 
192 24.64 15.84 1.76 
386 22.88 15.84 3.52 
190 26.4 15.84 0 
196 28.16 15.84 1.76 
390 26.4 15.84 3.52 
194 29.92 15.84 0 
200 31.68 15.84 1.76 
394 29.92 15.84 3.52 
198 33.44 15.84 0 
398 33.44 15.84 3.52 
203 1.76 0 5.28 
204 0 1.76 5.28 
208 3.52 1.76 5.28 
243 1.76 3.52 5.28 
401 0 0 7.04 
402 1.76 1.76 7.04 
405 3.52 0 7.04 
441 0 3.52 7.04 
445 3.52 3.52 7.04 
207 5.28 0 5.28 
212 7.04 1.76 5.28 
247 5.28 3.52 5.28 
406 5.28 1.76 7.04 
409 7.04 0 7.04 
449 7.04 3.52 7.04 
211 8.8 0 5.28 
251 8.8 3.52 5.28 
410 8.8 1.76 7.04 
215 12.32 0 5.28 
216 10.56 1.76 5.28 
220 14.08 1.76 5.28 
255 12.32 3.52 5.28 
413 10.56 0 7.04 
414 12.32 1.76 7.04 
417 14.08 0 7.04 
453 10.56 3.52 7.04 
457 14.08 3.52 7.04 
219 15.84 0 5.28 
259 15.84 3.52 5.28 
418 15.84 1.76 7.04 
223 19.36 0 5.28 
224 17.6 1.76 5.28 
263 19.36 3.52 5.28 
421 17.6 0 7.04 
422 19.36 1.76 7.04 
461 17.6 3.52 7.04 
227 22.88 0 5.28 
228 21.12 1.76 5.28 
232 24.64 1.76 5.28 
267 22.88 3.52 5.28 
425 21.12 0 7.04 
426 22.88 1.76 7.04 
429 24.64 0 7.04 
465 21.12 3.52 7.04 
469 24.64 3.52 7.04 
231 26.4 0 5.28 
236 28.16 1.76 5.28 
271 26.4 3.52 5.28 
430 26.4 1.76 7.04 
433 28.16 0 7.04 
473 28.16 3.52 7.04 
235 29.92 0 5.28 
240 31.68 1.76 5.28 
275 29.92 3.52 5.28 
434 29.92 1.76 7.04 
437 31.68 0 7.04 
477 31.68 3.52 7.04 
239 33.44 0 5.28 
279 33.44 3.52 5.28 
438 33.44 1.76 7.04 
244 0 5.28 5.28 
248 3.52 5.28 5.28 
283 1.76 7.04 5.28 
442 1.76 5.28 7.04 
481 0 7.04 7.04 
485 3.52 7.04 7.04 
252 7.04 5.28 5.28 
287 5.28 7.04 5.28 
446 5.28 5.28 7.04 
489 7.04 7.04 7.04 
291 8.8 7.04 5.28 
450 8.8 5.28 7.04 
256 10.56 5.28 5.28 
260 14.08 5.28 5.28 
295 12.32 7.04 5.28 
454 12.32 5.28 7.04 
493 10.56 7.04 7.04 
497 14.08 7.04 7.04 
299 15.84 7.04 5.28 
458 15.84 5.28 7.04 
264 17.6 5.28 5.28 
303 19.36 7.04 5.28 
462 19.36 5.28 7.04 
501 17.6 7.04 7.04 
268 21.12 5.28 5.28 
272 24.64 5.28 5.28 
307 22.88 7.04 5.28 
466 22.88 5.28 7.04 
505 21.12 7.04 7.04 
509 24.64 7.04 7.04 
276 28.16 5.28 5.28 
311 26.4 7.04 5.28 
470 26.4 5.28 7.04 
513 28.16 7.04 7.04 
280 31.68 5.28 5.28 
315 29.92 7.04 5.28 
474 29.92 5.28 7.04 
517 31.68 7.04 7.04 
319 33.44 7.04 5.28 
478 33.44 5.28 7.04 
284 0 8.8 5.28 
288 3.52 8.8 5.28 
482 1.76 8.8 7.04 
292 7.04 8.8 5.28 
486 5.28 8.8 7.04 
490 8.8 8.8 7.04 
296 10.56 8.8 5.28 
300 14.08 8.8 5.28 
494 12.32 8.8 7.04 
498 15.84 8.8 7.04 
304 17.6 8.8 5.28 
502 19.36 8.8 7.04 
308 21.12 8.8 5.28 
312 24.64 8.8 5.28 
506 22.88 8.8 7.04 
316 28.16 8.8 5.28 
510 26.4 8.8 7.04 
320 31.68 8.8 5.28 
514 29.92 8.8 7.04 
518 33.44 8.8 7.04 
323 1.76 10.56 5.28 
324 0 12.32 5.28 
328 3.52 12.32 5.28 
363 1.76 14.08 5.28 
521 0 10.56 7.04 
522 1.76 12.32 7.04 
525 3.52 10.56 7.04 
561 0 14.08 7.04 
565 3.52 14.08 7.04 
327 5.28 10.56 5.28 
332 7.04 12.32 5.28 
367 5.28 14.08 5.28 
526 5.28 12.32 7.04 
529 7.04 10.56 7.04 
569 7.04 14.08 7.04 
331 8.8 10.56 5.28 
371 8.8 14.08 5.28 
530 8.8 12.32 7.04 
335 12.32 10.56 5.28 
336 10.56 12.32 5.28 
340 14.08 12.32 5.28 
375 12.32 14.08 5.28 
533 10.56 10.56 7.04 
534 12.32 12.32 7.04 
537 14.08 10.56 7.04 
573 10.56 14.08 7.04 
577 14.08 14.08 7.04 
339 15.84 10.56 5.28 
379 15.84 14.08 5.28 
538 15.84 12.32 7.04 
343 19.36 10.56 5.28 
344 17.6 12.32 5.28 
383 19.36 14.08 5.28 
541 17.6 10.56 7.04 
542 19.36 12.32 7.04 
581 17.6 14.08 7.04 
347 22.88 10.56 5.28 
348 21.12 12.32 5.28 
352 24.64 12.32 5.28 
387 22.88 14.08 5.28 
545 21.12 10.56 7.04 
546 22.88 12.32 7.04 
549 24.64 10.56 7.04 
585 21.12 14.08 7.04 
589 24.64 14.08 7.04 
351 26.4 10.56 5.28 
356 28.16 12.32 5.28 
391 26.4 14.08 5.28 
550 26.4 12.32 7.04 
553 28.16 10.56 7.04 
593 28.16 14.08 7.04 
355 29.92 10.56 5.28 
360 31.68 12.32 5.28 
395 29.92 14.08 5.28 
554 29.92 12.32 7.04 
557 31.68 10.56 7.04 
597 31.68 14.08 7.04 
359 33.44 10.56 5.28 
399 33.44 14.08 5.28 
558 33.44 12.32 7.04 
364 0 15.84 5.28 
368 3.52 15.84 5.28 
562 1.76 15.84 7.04 
372 7.04 15.84 5.28 
566 5.28 15.84 7.04 
570 8.8 15.84 7.04 
376 10.56 15.84 5.28 
380 14.08 15.84 5.28 
574 12.32 15.84 7.04 
578 15.84 15.84 7.04 
384 17.6 15.84 5.28 
582 19.36 15.84 7.04 
388 21.12 15.84 5.28 
392 24.64 15.84 5.28 
586 22.88 15.84 7.04 
396 28.16 15.84 5.28 
590 26.4 15.84 7.04 
400 31.68 15.84 5.28 
594 29.92 15.84 7.04 
598 33.44 15.84 7.04 
403 1.76 0 8.8 
404 0 1.76 8.8 
408 3.52 1.76 8.8 
443 1.76 3.52 8.8 
407 5.28 0 8.8 
412 7.04 1.76 8.8 
447 5.28 3.52 8.8 
411 8.8 0 8.8 
451 8.8 3.52 8.8 
415 12.32 0 8.8 
416 10.56 1.76 8.8 
420 14.08 1.76 8.8 
455 12.32 3.52 8.8 
419 15.84 0 8.8 
459 15.84 3.52 8.8 
423 19.36 0 8.8 
424 17.6 1.76 8.8 
463 19.36 3.52 8.8 
427 22.88 0 8.8 
428 21.12 1.76 8.8 
432 24.64 1.76 8.8 
467 22.88 3.52 8.8 
431 26.4 0 8.8 
436 28.16 1.76 8.8 
471 26.4 3.52 8.8 
435 29.92 0 8.8 
440 31.68 1.76 8.8 
475 29.92 3.52 8.8 
439 33.44 0 8.8 
479 33.44 3.52 8.8 
444 0 5.28 8.8 
448 3.52 5.28 8.8 
483 1.76 7.04 8.8 
452 7.04 5.28 8.8 
487 5.28 7.04 8.8 
491 8.8 7.04 8.8 
456 10.56 5.28 8.8 
460 14.08 5.28 8.8 
495 12.32 7.04 8.8 
499 15.84 7.04 8.8 
464 17.6 5.28 8.8 
503 19.36 7.04 8.8 
468 21.12 5.28 8.8 
472 24.64 5.28 8.8 
507 22.88 7.04 8.8 
476 28.16 5.28 8.8 
511 26.4 7.04 8.8 
480 31.68 5.28 8.8 
515 29.92 7.04 8.8 
519 33.44 7.04 8.8 
484 0 8.8 8.8 
488 3.52 8.8 8.8 
492 7.04 8.8 8.8 
496 10.56 8.8 8.8 
500 14.08 8.8 8.8 
504 17.6 8.8 8.8 
508 21.12 8.8 8.8 
512 24.64 8.8 8.8 
516 28.16 8.8 8.8 
520 31.68 8.8 8.8 
523 1.76 10.56 8.8 
524 0 12.32 8.8 
528 3.52 12.32 8.8 
563 1.76 14.08 8.8 
527 5.28 10.56 8.8 
532 7.04 12.32 8.8 
567 5.28 14.08 8.8 
531 8.8 10.56 8.8 
571 8.8 14.08 8.8 
535 12.32 10.56 8.8 
536 10.56 12.32 8.8 
540 14.08 12.32 8.8 
575 12.32 14.08 8.8 
539 15.84 10.56 8.8 
579 15.84 14.08 8.8 
543 19.36 10.56 8.8 
544 17.6 12.32 8.8 
583 19.36 14.08 8.8 
547 22.88 10.56 8.8 
548 21.12 12.32 8.8 
552 24.64 12.32 8.8 
587 22.88 14.08 8.8 
551 26.4 10.56 8.8 
556 28.16 12.32 8.8 
591 26.4 14.08 8.8 
555 29.92 10.56 8.8 
560 31.68 12.32 8.8 
595 29.92 14.08 8.8 
559 33.44 10.56 8.8 
599 33.44 14.08 8.8 
564 0 15.84 8.8 
568 3.52 15.84 8.8 
572 7.04 15.84 8.8 
576 10.56 15.84 8.8 
580 14.08 15.84 8.8 
584 17.6 15.84 8.8 
588 21.12 15.84 8.8 
592 24.64 15.84 8.8 
596 28.16 15.84 8.8 
600 31.68 15.84 8.8 
601 0 0 10.56 
602 1.76 1.76 10.56 
603 1.76 0 12.32 
604 0 1.76 12.32 
605 3.52 0 10.56 
608 3.52 1.76 12.32 
641 0 3.52 10.56 
643 1.76 3.52 12.32 
645 3.52 3.52 10.56 
801 0 0 14.08 
802 1.76 1.76 14.08 
805 3.52 0 14.08 
841 0 3.52 14.08 
845 3.52 3.52 14.08 
606 5.28 1.76 10.56 
607 5.28 0 12.32 
609 7.04 0 10.56 
612 7.04 1.76 12.32 
647 5.28 3.52 12.32 
649 7.04 3.52 10.56 
806 5.28 1.76 14.08 
809 7.04 0 14.08 
849 7.04 3.52 14.08 
610 8.8 1.76 10.56 
611 8.8 0 12.32 
651 8.8 3.52 12.32 
810 8.8 1.76 14.08 
613 10.56 0 10.56 
614 12.32 1.76 10.56 
615 12.32 0 12.32 
616 10.56 1.76 12.32 
617 14.08 0 10.56 
620 14.08 1.76 12.32 
653 10.56 3.52 10.56 
655 12.32 3.52 12.32 
657 14.08 3.52 10.56 
813 10.56 0 14.08 
814 12.32 1.76 14.08 
817 14.08 0 14.08 
853 10.56 3.52 14.08 
857 14.08 3.52 14.08 
618 15.84 1.76 10.56 
619 15.84 0 12.32 
659 15.84 3.52 12.32 
818 15.84 1.76 14.08 
621 17.6 0 10.56 
622 19.36 1.76 10.56 
623 19.36 0 12.32 
624 17.6 1.76 12.32 
661 17.6 3.52 10.56 
663 19.36 3.52 12.32 
821 17.6 0 14.08 
822 19.36 1.76 14.08 
861 17.6 3.52 14.08 
625 21.12 0 10.56 
626 22.88 1.76 10.56 
627 22.88 0 12.32 
628 21.12 1.76 12.32 
629 24.64 0 10.56 
632 24.64 1.76 12.32 
665 21.12 3.52 10.56 
667 22.88 3.52 12.32 
669 24.64 3.52 10.56 
825 21.12 0 14.08 
826 22.88 1.76 14.08 
829 24.64 0 14.08 
865 21.12 3.52 14.08 
869 24.64 3.52 14.08 
630 26.4 1.76 10.56 
631 26.4 0 12.32 
633 28.16 0 10.56 
636 28.16 1.76 12.32 
671 26.4 3.52 12.32 
673 28.16 3.52 10.56 
830 26.4 1.76 14.08 
833 28.16 0 14.08 
873 28.16 3.52 14.08 
634 29.92 1.76 10.56 
635 29.92 0 12.32 
637 31.68 0 10.56 
640 31.68 1.76 12.32 
675 29.92 3.52 12.32 
677 31.68 3.52 10.56 
834 29.92 1.76 14.08 
837 31.68 0 14.08 
877 31.68 3.52 14.08 
638 33.44 1.76 10.56 
639 33.44 0 12.32 
679 33.44 3.52 12.32 
838 33.44 1.76 14.08 
642 1.76 5.28 10.56 
644 0 5.28 12.32 
648 3.52 5.28 12.32 
681 0 7.04 10.56 
683 1.76 7.04 12.32 
685 3.52 7.04 10.56 
842 1.76 5.28 14.08 
881 0 7.04 14.08 
885 3.52 7.04 14.08 
646 5.28 5.28 10.56 
652 7.04 5.28 12.32 
687 5.28 7.04 12.32 
689 7.04 7.04 10.56 
846 5.28 5.28 14.08 
889 7.04 7.04 14.08 
650 8.8 5.28 10.56 
691 8.8 7.04 12.32 
850 8.8 5.28 14.08 
654 12.32 5.28 10.56 
656 10.56 5.28 12.32 
660 14.08 5.28 12.32 
693 10.56 7.04 10.56 
695 12.32 7.04 12.32 
697 14.08 7.04 10.56 
854 12.32 5.28 14.08 
893 10.56 7.04 14.08 
897 14.08 7.04 14.08 
658 15.84 5.28 10.56 
699 15.84 7.04 12.32 
858 15.84 5.28 14.08 
662 19.36 5.28 10.56 
664 17.6 5.28 12.32 
701 17.6 7.04 10.56 
703 19.36 7.04 12.32 
862 19.36 5.28 14.08 
901 17.6 7.04 14.08 
666 22.88 5.28 10.56 
668 21.12 5.28 12.32 
672 24.64 5.28 12.32 
705 21.12 7.04 10.56 
707 22.88 7.04 12.32 
709 24.64 7.04 10.56 
866 22.88 5.28 14.08 
905 21.12 7.04 14.08 
909 24.64 7.04 14.08 
670 26.4 5.28 10.56 
676 28.16 5.28 12.32 
711 26.4 7.04 12.32 
713 28.16 7.04 10.56 
870 26.4 5.28 14.08 
913 28.16 7.04 14.08 
674 29.92 5.28 10.56 
680 31.68 5.28 12.32 
715 29.92 7.04 12.32 
717 31.68 7.04 10.56 
874 29.92 5.28 14.08 
917 31.68 7.04 14.08 
678 33.44 5.28 10.56 
719 33.44 7.04 12.32 
878 33.44 5.28 14.08 
682 1.76 8.8 10.56 
684 0 8.8 12.32 
688 3.52 8.8 12.32 
882 1.76 8.8 14.08 
686 5.28 8.8 10.56 
692 7.04 8.8 12.32 
886 5.28 8.8 14.08 
690 8.8 8.8 10.56 
890 8.8 8.8 14.08 
694 12.32 8.8 10.56 
696 10.56 8.8 12.32 
700 14.08 8.8 12.32 
894 12.32 8.8 14.08 
698 15.84 8.8 10.56 
898 15.84 8.8 14.08 
702 19.36 8.8 10.56 
704 17.6 8.8 12.32 
902 19.36 8.8 14.08 
706 22.88 8.8 10.56 
708 21.12 8.8 12.32 
712 24.64 8.8 12.32 
906 22.88 8.8 14.08 
710 26.4 8.8 10.56 
716 28.16 8.8 12.32 
910 26.4 8.8 14.08 
714 29.92 8.8 10.56 
720 31.68 8.8 12.32 
914 29.92 8.8 14.08 
718 33.44 8.8 10.56 
918 33.44 8.8 14.08 
721 0 10.56 10.56 
722 1.76 12.32 10.56 
723 1.76 10.56 12.32 
724 0 12.32 12.32 
725 3.52 10.56 10.56 
728 3.52 12.32 12.32 
761 0 14.08 10.56 
763 1.76 14.08 12.32 
765 3.52 14.08 10.56 
921 0 10.56 14.08 
922 1.76 12.32 14.08 
925 3.52 10.56 14.08 
961 0 14.08 14.08 
965 3.52 14.08 14.08 
726 5.28 12.32 10.56 
727 5.28 10.56 12.32 
729 7.04 10.56 10.56 
732 7.04 12.32 12.32 
767 5.28 14.08 12.32 
769 7.04 14.08 10.56 
926 5.28 12.32 14.08 
929 7.04 10.56 14.08 
969 7.04 14.08 14.08 
730 8.8 12.32 10.56 
731 8.8 10.56 12.32 
771 8.8 14.08 12.32 
930 8.8 12.32 14.08 
733 10.56 10.56 10.56 
734 12.32 12.32 10.56 
735 12.32 10.56 12.32 
736 10.56 12.32 12.32 
737 14.08 10.56 10.56 
740 14.08 12.32 12.32 
773 10.56 14.08 10.56 
775 12.32 14.08 12.32 
777 14.08 14.08 10.56 
933 10.56 10.56 14.08 
934 12.32 12.32 14.08 
937 14.08 10.56 14.08 
973 10.56 14.08 14.08 
977 14.08 14.08 14.08 
738 15.84 12.32 10.56 
739 15.84 10.56 12.32 
779 15.84 14.08 12.32 
938 15.84 12.32 14.08 
741 17.6 10.56 10.56 
742 19.36 12.32 10.56 
743 19.36 10.56 12.32 
744 17.6 12.32 12.32 
781 17.6 14.08 10.56 
783 19.36 14.08 12.32 
941 17.6 10.56 14.08 
942 19.36 12.32 14.08 
981 17.6 14.08 14.08 
745 21.12 10.56 10.56 
746 22.88 12.32 10.56 
747 22.88 10.56 12.32 
748 21.12 12.32 12.32 
749 24.64 10.56 10.56 
752 24.64 12.32 12.32 
785 21.12 14.08 10.56 
787 22.88 14.08 12.32 
789 24.64 14.08 10.56 
945 21.12 10.56 14.08 
946 22.88 12.32 14.08 
949 24.64 10.56 14.08 
985 21.12 14.08 14.08 
989 24.64 14.08 14.08 
750 26.4 12.32 10.56 
751 26.4 10.56 12.32 
753 28.16 10.56 10.56 
756 28.16 12.32 12.32 
791 26.4 14.08 12.32 
793 28.16 14.08 10.56 
950 26.4 12.32 14.08 
953 28.16 10.56 14.08 
993 28.16 14.08 14.08 
754 29.92 12.32 10.56 
755 29.92 10.56 12.32 
757 31.68 10.56 10.56 
760 31.68 12.32 12.32 
795 29.92 14.08 12.32 
797 31.68 14.08 10.56 
954 29.92 12.32 14.08 
957 31.68 10.56 14.08 
997 31.68 14.08 14.08 
758 33.44 12.32 10.56 
759 33.44 10.56 12.32 
799 33.44 14.08 12.32 
958 33.44 12.32 14.08 
762 1.76 15.84 10.56 
764 0 15.84 12.32 
768 3.52 15.84 12.32 
962 1.76 15.84 14.08 
766 5.28 15.84 10.56 
772 7.04 15.84 12.32 
966 5.28 15.84 14.08 
770 8.8 15.84 10.56 
970 8.8 15.84 14.08 
774 12.32 15.84 10.56 
776 10.56 15.84 12.32 
780 14.08 15.84 12.32 
974 12.32 15.84 14.08 
778 15.84 15.84 10.56 
978 15.84 15.84 14.08 
782 19.36 15.84 10.56 
784 17.6 15.84 12.32 
982 19.36 15.84 14.08 
786 22.88 15.84 10.56 
788 21.12 15.84 12.32 
792 24.64 15.84 12.32 
986 22.88 15.84 14.08 
790 26.4 15.84 10.56 
796 28.16 15.84 12.32 
990 26.4 15.84 14.08 
794 29.92 15.84 10.56 
800 31.68 15.84 12.32 
994 29.92 15.84 14.08 
798 33.44 15.84 10.56 
998 33.44 15.84 14.08 
803 1.76 0 15.84 
804 0 1.76 15.84 
808 3.52 1.76 15.84 
843 1.76 3.52 15.84 
807 5.28 0 15.84 
812 7.04 1.76 15.84 
847 5.28 3.52 15.84 
811 8.8 0 15.84 
851 8.8 3.52 15.84 
815 12.32 0 15.84 
816 10.56 1.76 15.84 
820 14.08 1.76 15.84 
855 12.32 3.52 15.84 
819 15.84 0 15.84 
859 15.84 3.52 15.84 
823 19.36 0 15.84 
824 17.6 1.76 15.84 
863 19.36 3.52 15.84 
827 22.88 0 15.84 
828 21.12 1.76 15.84 
832 24.64 1.76 15.84 
867 22.88 3.52 15.84 
831 26.4 0 15.84 
836 28.16 1.76 15.84 
871 26.4 3.52 15.84 
835 29.92 0 15.84 
840 31.68 1.76 15.84 
875 29.92 3.52 15.84 
839 33.44 0 15.84 
879 33.44 3.52 15.84 
844 0 5.28 15.84 
848 3.52 5.28 15.84 
883 1.76 7.04 15.84 
852 7.04 5.28 15.84 
887 5.28 7.04 15.84 
891 8.8 7.04 15.84 
856 10.56 5.28 15.84 
860 14.08 5.28 15.84 
895 12.32 7.04 15.84 
899 15.84 7.04 15.84 
864 17.6 5.28 15.84 
903 19.36 7.04 15.84 
868 21.12 5.28 15.84 
872 24.64 5.28 15.84 
907 22.88 7.04 15.84 
876 28.16 5.28 15.84 
911 26.4 7.04 15.84 
880 31.68 5.28 15.84 
915 29.92 7.04 15.84 
919 33.44 7.04 15.84 
884 0 8.8 15.84 
888 3.52 8.8 15.84 
892 7.04 8.8 15.84 
896 10.56 8.8 15.84 
900 14.08 8.8 15.84 
904 17.6 8.8 15.84 
908 21.12 8.8 15.84 
912 24.64 8.8 15.84 
916 28.16 8.8 15.84 
920 31.68 8.8 15.84 
923 1.76 10.56 15.84 
924 0 12.32 15.84 
928 3.52 12.32 15.84 
963 1.76 14.08 15.84 
927 5.28 10.56 15.84 
932 7.04 12.32 15.84 
967 5.28 14.08 15.84 
931 8.8 10.56 15.84 
971 8.8 14.08 15.84 
935 12.32 10.56 15.84 
936 10.56 12.32 15.84 
940 14.08 12.32 15.84 
975 12.32 14.08 15.84 
939 15.84 10.56 15.84 
979 15.84 14.08 15.84 
943 19.36 10.56 15.84 
944 17.6 12.32 15.84 
983 19.36 14.08 15.84 
947 22.88 10.56 15.84 
948 21.12 12.32 15.84 
952 24.64 12.32 15.84 
987 22.88 14.08 15.84 
951 26.4 10.56 15.84 
956 28.16 12.32 15.84 
991 26.4 14.08 15.84 
955 29.92 10.56 15.84 
960 31.68 12.32 15.84 
995 29.92 14.08 15.84 
959 33.44 10.56 15.84 
999 33.44 14.08 15.84 
964 0 15.84 15.84 
968 3.52 15.84 15.84 
972 7.04 15.84 15.84 
976 10.56 15.84 15.84 
980 14.08 15.84 15.84 
984 17.6 15.84 15.84 
988 21.12 15.84 15.84 
992 24.64 15.84 15.84 
996 28.16 15.84 15.84 
1000 31.68 15.84 15.84 
1001 0 0 17.6 
1002 1.76 1.76 17.6 
1003 1.76 0 19.36 
1004 0 1.76 19.36 
1005 3.52 0 17.6 
1008 3.52 1.76 19.36 
1041 0 3.52 17.6 
1043 1.76 3.52 19.36 
1045 3.52 3.52 17.6 
1201 0 0 21.12 
1202 1.76 1.76 21.12 
1205 3.52 0 21.12 
1241 0 3.52 21.12 
1245 3.52 3.52 21.12 
1006 5.28 1.76 17.6 
1007 5.28 0 19.36 
1009 7.04 0 17.6 
1012 7.04 1.76 19.36 
1047 5.28 3.52 19.36 
1049 7.04 3.52 17.6 
1206 5.28 1.76 21.12 
1209 7.04 0 21.12 
1249 7.04 3.52 21.12 
1010 8.8 1.76 17.6 
1011 8.8 0 19.36 
1051 8.8 3.52 19.36 
1210 8.8 1.76 21.12 
1013 10.56 0 17.6 
1014 12.32 1.76 17.6 
1015 12.32 0 19.36 
1016 10.56 1.76 19.36 
1017 14.08 0 17.6 
1020 14.08 1.76 19.36 
1053 10.56 3.52 17.6 
1055 12.32 3.52 19.36 
1057 14.08 3.52 17.6 
1213 10.56 0 21.12 
1214 12.32 1.76 21.12 
1217 14.08 0 21.12 
1253 10.56 3.52 21.12 
1257 14.08 3.52 21.12 
1018 15.84 1.76 17.6 
1019 15.84 0 19.36 
1059 15.84 3.52 19.36 
1218 15.84 1.76 21.12 
1021 17.6 0 17.6 
1022 19.36 1.76 17.6 
1023 19.36 0 19.36 
1024 17.6 1.76 19.36 
1061 17.6 3.52 17.6 
1063 19.36 3.52 19.36 
1221 17.6 0 21.12 
1222 19.36 1.76 21.12 
1261 17.6 3.52 21.12 
1025 21.12 0 17.6 
1026 22.88 1.76 17.6 
1027 22.88 0 19.36 
1028 21.12 1.76 19.36 
1029 24.64 0 17.6 
1032 24.64 1.76 19.36 
1065 21.12 3.52 17.6 
1067 22.88 3.52 19.36 
1069 24.64 3.52 17.6 
1225 21.12 0 21.12 
1226 22.88 1.76 21.12 
1229 24.64 0 21.12 
1265 21.12 3.52 21.12 
1269 24.64 3.52 21.12 
1030 26.4 1.76 17.6 
1031 26.4 0 19.36 
1033 28.16 0 17.6 
1036 28.16 1.76 19.36 
1071 26.4 3.52 19.36 
1073 28.16 3.52 17.6 
1230 26.4 1.76 21.12 
1233 28.16 0 21.12 
1273 28.16 3.52 21.12 
1034 29.92 1.76 17.6 
1035 29.92 0 19.36 
1037 31.68 0 17.6 
1040 31.68 1.76 19.36 
1075 29.92 3.52 19.36 
1077 31.68 3.52 17.6 
1234 29.92 1.76 21.12 
1237 31.68 0 21.12 
1277 31.68 3.52 21.12 
1038 33.44 1.76 17.6 
1039 33.44 0 19.36 
1079 33.44 3.52 19.36 
1238 33.44 1.76 21.12 
1042 1.76 5.28 17.6 
1044 0 5.28 19.36 
1048 3.52 5.28 19.36 
1081 0 7.04 17.6 
1083 1.76 7.04 19.36 
1085 3.52 7.04 17.6 
1242 1.76 5.28 21.12 
1281 0 7.04 21.12 
1285 3.52 7.04 21.12 
1046 5.28 5.28 17.6 
1052 7.04 5.28 19.36 
1087 5.28 7.04 19.36 
1089 7.04 7.04 17.6 
1246 5.28 5.28 21.12 
1289 7.04 7.04 21.12 
1050 8.8 5.28 17.6 
1091 8.8 7.04 19.36 
1250 8.8 5.28 21.12 
1054 12.32 5.28 17.6 
1056 10.56 5.28 19.36 
1060 14.08 5.28 19.36 
1093 10.56 7.04 17.6 
1095 12.32 7.04 19.36 
1097 14.08 7.04 17.6 
1254 12.32 5.28 21.12 
1293 10.56 7.04 21.12 
1297 14.08 7.04 21.12 
1058 15.84 5.28 17.6 
1099 15.84 7.04 19.36 
1258 15.84 5.28 21.12 
1062 19.36 5.28 17.6 
1064 17.6 5.28 19.36 
1101 17.6 7.04 17.6 
1103 19.36 7.04 19.36 
1262 19.36 5.28 21.12 
1301 17.6 7.04 21.12 
1066 22.88 5.28 17.6 
1068 21.12 5.28 19.36 
1072 24.64 5.28 19.36 
1105 21.12 7.04 17.6 
1107 22.88 7.04 19.36 
1109 24.64 7.04 17.6 
1266 22.88 5.28 21.12 
1305 21.12 7.04 21.12 
1309 24.64 7.04 21.12 
1070 26.4 5.28 17.6 
1076 28.16 5.28 19.36 
1111 26.4 7.04 19.36 
1113 28.16 7.04 17.6 
1270 26.4 5.28 21.12 
1313 28.16 7.04 21.12 
1074 29.92 5.28 17.6 
1080 31.68 5.28 19.36 
1115 29.92 7.04 19.36 
1117 31.68 7.04 17.6 
1274 29.92 5.28 21.12 
1317 31.68 7.04 21.12 
1078 33.44 5.28 17.6 
1119 33.44 7.04 19.36 
1278 33.44 5.28 21.12 
1082 1.76 8.8 17.6 
1084 0 8.8 19.36 
1088 3.52 8.8 19.36 
1282 1.76 8.8 21.12 
1086 5.28 8.8 17.6 
1092 7.04 8.8 19.36 
1286 5.28 8.8 21.12 
1090 8.8 8.8 17.6 
1290 8.8 8.8 21.12 
1094 12.32 8.8 17.6 
1096 10.56 8.8 19.36 
1100 14.08 8.8 19.36 
1294 12.32 8.8 21.12 
1098 15.84 8.8 17.6 
1298 15.84 8.8 21.12 
1102 19.36 8.8 17.6 
1104 17.6 8.8 19.36 
1302 19.36 8.8 21.12 
1106 22.88 8.8 17.6 
1108 21.12 8.8 19.36 
1112 24.64 8.8 19.36 
1306 22.88 8.8 21.12 
1110 26.4 8.8 17.6 
1116 28.16 8.8 19.36 
1310 26.4 8.8 21.12 
1114 29.92 8.8 17.6 
1120 31.68 8.8 19.36 
1314 29.92 8.8 21.12 
1118 33.44 8.8 17.6 
1318 33.44 8.8 21.12 
1121 0 10.56 17.6 
1122 1.76 12.32 17.6 
1123 1.76 10.56 19.36 
1124 0 12.32 19.36 
1125 3.52 10.56 17.6 
1128 3.52 12.32 19.36 
1161 0 14.08 17.6 
1163 1.76 14.08 19.36 
1165 3.52 14.08 17.6 
1321 0 10.56 21.12 
1322 1.76 12.32 21.12 
1325 3.52 10.56 21.12 
1361 0 14.08 21.12 
1365 3.52 14.08 21.12 
1126 5.28 12.32 17.6 
1127 5.28 10.56 19.36 
1129 7.04 10.56 17.6 
1132 7.04 12.32 19.36 
1167 5.28 14.08 19.36 
1169 7.04 14.08 17.6 
1326 5.28 12.32 21.12 
1329 7.04 10.56 21.12 
1369 7.04 14.08 21.12 
1130 8.8 12.32 17.6 
1131 8.8 10.56 19.36 
1171 8.8 14.08 19.36 
1330 8.8 12.32 21.12 
1133 10.56 10.56 17.6 
1134 12.32 12.32 17.6 
1135 12.32 10.56 19.36 
1136 10.56 12.32 19.36 
1137 14.08 10.56 17.6 
1140 14.08 12.32 19.36 
1173 10.56 14.08 17.6 
1175 12.32 14.08 19.36 
1177 14.08 14.08 17.6 
1333 10.56 10.56 21.12 
1334 12.32 12.32 21.12 
1337 14.08 10.56 21.12 
1373 10.56 14.08 21.12 
1377 14.08 14.08 21.12 
1138 15.84 12.32 17.6 
1139 15.84 10.56 19.36 
1179 15.84 14.08 19.36 
1338 15.84 12.32 21.12 
1141 17.6 10.56 17.6 
1142 19.36 12.32 17.6 
1143 19.36 10.56 19.36 
1144 17.6 12.32 19.36 
1181 17.6 14.08 17.6 
1183 19.36 14.08 19.36 
1341 17.6 10.56 21.12 
1342 19.36 12.32 21.12 
1381 17.6 14.08 21.12 
1145 21.12 10.56 17.6 
1146 22.88 12.32 17.6 
1147 22.88 10.56 19.36 
1148 21.12 12.32 19.36 
1149 24.64 10.56 17.6 
1152 24.64 12.32 19.36 
1185 21.12 14.08 17.6 
1187 22.88 14.08 19.36 
1189 24.64 14.08 17.6 
1345 21.12 10.56 21.12 
1346 22.88 12.32 21.12 
1349 24.64 10.56 21.12 
1385 21.12 14.08 21.12 
1389 24.64 14.08 21.12 
1150 26.4 12.32 17.6 
1151 26.4 10.56 19.36 
1153 28.16 10.56 17.6 
1156 28.16 12.32 19.36 
1191 26.4 14.08 19.36 
1193 28.16 14.08 17.6 
1350 26.4 12.32 21.12 
1353 28.16 10.56 21.12 
1393 28.16 14.08 21.12 
1154 29.92 12.32 17.6 
1155 29.92 10.56 19.36 
1157 31.68 10.56 17.6 
1160 31.68 12.32 19.36 
1195 29.92 14.08 19.36 
1197 31.68 14.08 17.6 
1354 29.92 12.32 21.12 
1357 31.68 10.56 21.12 
1397 31.68 14.08 21.12 
1158 33.44 12.32 17.6 
1159 33.44 10.56 19.36 
1199 33.44 14.08 19.36 
1358 33.44 12.32 21.12 
1162 1.76 15.84 17.6 
1164 0 15.84 19.36 
1168 3.52 15.84 19.36 
1362 1.76 15.84 21.12 
1166 5.28 15.84 17.6 
1172 7.04 15.84 19.36 
1366 5.28 15.84 21.12 
1170 8.8 15.84 17.6 
1370 8.8 15.84 21.12 
1174 12.32 15.84 17.6 
1176 10.56 15.84 19.36 
1180 14.08 15.84 19.36 
1374 12.32 15.84 21.12 
1178 15.84 15.84 17.6 
1378 15.84 15.84 21.12 
1182 19.36 15.84 17.6 
1184 17.6 15.84 19.36 
1382 19.36 15.84 21.12 
1186 22.88 15.84 17.6 
1188 21.12 15.84 19.36 
1192 24.64 15.84 19.36 
1386 22.88 15.84 21.12 
1190 26.4 15.84 17.6 
1196 28.16 15.84 19.36 
1390 26.4 15.84 21.12 
1194 29.92 15.84 17.6 
1200 31.68 15.84 19.36 
1394 29.92 15.84 21.12 
1198 33.44 15.84 17.6 
1398 33.44 15.84 21.12 
1203 1.76 0 22.88 
1204 0 1.76 22.88 
1208 3.52 1.76 22.88 
1243 1.76 3.52 22.88 
1401 0 0 24.64 
1402 1.76 1.76 24.64 
1405 3.52 0 24.64 
1441 0 3.52 24.64 
1445 3.52 3.52 24.64 
1207 5.28 0 22.88 
1212 7.04 1.76 22.88 
1247 5.28 3.52 22.88 
1406 5.28 1.76 24.64 
1409 7.04 0 24.64 
1449 7.04 3.52 24.64 
1211 8.8 0 22.88 
1251 8.8 3.52 22.88 
1410 8.8 1.76 24.64 
1215 12.32 0 22.88 
1216 10.56 1.76 22.88 
1220 14.08 1.76 22.88 
1255 12.32 3.52 22.88 
1413 10.56 0 24.64 
1414 12.32 1.76 24.64 
1417 14.08 0 24.64 
1453 10.56 3.52 24.64 
1457 14.08 3.52 24.64 
1219 15.84 0 22.88 
1259 15.84 3.52 22.88 
1418 15.84 1.76 24.64 
1223 19.36 0 22.88 
1224 17.6 1.76 22.88 
1263 19.36 3.52 22.88 
1421 17.6 0 24.64 
1422 19.36 1.76 24.64 
1461 17.6 3.52 24.64 
1227 22.88 0 22.88 
1228 21.12 1.76 22.88 
1232 24.64 1.76 22.88 
1267 22.88 3.52 22.88 
1425 21.12 0 24.64 
1426 22.88 1.76 24.64 
1429 24.64 0 24.64 
1465 21.12 3.52 24.64 
1469 24.64 3.52 24.64 
1231 26.4 0 22.88 
1236 28.16 1.76 22.88 
1271 26.4 3.52 22.88 
1430 26.4 1.76 24.64 
1433 28.16 0 24.64 
1473 28.16 3.52 24.64 
1235 29.92 0 22.88 
1240 31.68 1.76 22.88 
1275 29.92 3.52 22.88 
1434 29.92 1.76 24.64 
1437 31.68 0 24.64 
1477 31.68 3.52 24.64 
1239 33.44 0 22.88 
1279 33.44 3.52 22.88 
1438 33.44 1.76 24.64 
1244 0 5.28 22.88 
1248 3.52 5.28 22.88 
1283 1.76 7.04 22.88 
1442 1.76 5.28 24.64 
1481 0 7.04 24.64 
1485 3.52 7.04 24.64 
1252 7.04 5.28 22.88 
1287 5.28 7.04 22.88 
1446 5.28 5.28 24.64 
1489 7.04 7.04 24.64 
1291 8.8 7.04 22.88 
1450 8.8 5.28 24.64 
1256 10.56 5.28 22.88 
1260 14.08 5.28 22.88 
1295 12.32 7.04 22.88 
1454 12.32 5.28 24.64 
1493 10.56 7.04 24.64 
1497 14.08 7.04 24.64 
1299 15.84 7.04 22.88 
1458 15.84 5.28 24.64 
1264 17.6 5.28 22.88 
1303 19.36 7.04 22.88 
1462 19.36 5.28 24.64 
1501 17.6 7.04 24.64 
1268 21.12 5.28 22.88 
1272 24.64 5.28 22.88 
1307 22.88 7.04 22.88 
1466 22.88 5.28 24.64 
1505 21.12 7.04 24.64 
1509 24.64 7.04 24.64 
1276 28.16 5.28 22.88 
1311 26.4 7.04 22.88 
1470 26.4 5.28 24.64 
1513 28.16 7.04 24.64 
1280 31.68 5.28 22.88 
1315 29.92 7.04 22.88 
1474 29.92 5.28 24.64 
1517 31.68 7.04 24.64 
1319 33.44 7.04 22.88 
1478 33.44 5.28 24.64 
1284 0 8.8 22.88 
1288 3.52 8.8 22.88 
1482 1.76 8.8 24.64 
1292 7.04 8.8 22.88 
1486 5.28 8.8 24.64 
1490 8.8 8.8 24.64 
1296 10.56 8.8 22.88 
1300 14.08 8.8 22.88 
1494 12.32 8.8 24.64 
1498 15.84 8.8 24.64 
1304 17.6 8.8 22.88 
1502 19.36 8.8 24.64 
1308 21.12 8.8 22.88 
1312 24.64 8.8 22.88 
1506 22.88 8.8 24.64 
1316 28.16 8.8 22.88 
1510 26.4 8.8 24.64 
1320 31.68 8.8 22.88 
1514 29.92 8.8 24.64 
1518 33.44 8.8 24.64 
1323 1.76 10.56 22.88 
1324 0 12.32 22.88 
1328 3.52 12.32 22.88 
1363 1.76 14.08 22.88 
1521 0 10.56 24.64 
1522 1.76 12.32 24.64 
1525 3.52 10.56 24.64 
1561 0 14.08 24.64 
1565 3.52 14.08 24.64 
1327 5.28 10.56 22.88 
1332 7.04 12.32 22.88 
1367 5.28 14.08 22.88 
1526 5.28 12.32 24.64 
1529 7.04 10.56 24.64 
1569 7.04 14.08 24.64 
1331 8.8 10.56 22.88 