LAMMPS (15 May 2015)
variable  A string "bulkNi"
log		$A.log
log		bulkNi.log
