ITEM: TIMESTEP
0
ITEM: NUMBER OF ATOMS
32000
ITEM: BOX BOUNDS pp pp pp
0 70.4
0 70.4
0 70.4
ITEM: ATOMS id x y z 
1 0 0 0 
2 1.76 1.76 0 
3 1.76 0 1.76 
4 0 1.76 1.76 
5 3.52 0 0 
6 5.28 1.76 0 
7 5.28 0 1.76 
8 3.52 1.76 1.76 
9 7.04 0 0 
10 8.8 1.76 0 
11 8.8 0 1.76 
12 7.04 1.76 1.76 
13 10.56 0 0 
14 12.32 1.76 0 
15 12.32 0 1.76 
16 10.56 1.76 1.76 
17 14.08 0 0 
18 15.84 1.76 0 
19 15.84 0 1.76 
20 14.08 1.76 1.76 
21 17.6 0 0 
22 19.36 1.76 0 
23 19.36 0 1.76 
24 17.6 1.76 1.76 
25 21.12 0 0 
26 22.88 1.76 0 
27 22.88 0 1.76 
28 21.12 1.76 1.76 
29 24.64 0 0 
30 26.4 1.76 0 
31 26.4 0 1.76 
32 24.64 1.76 1.76 
33 28.16 0 0 
34 29.92 1.76 0 
35 29.92 0 1.76 
36 28.16 1.76 1.76 
37 31.68 0 0 
38 33.44 1.76 0 
39 33.44 0 1.76 
40 31.68 1.76 1.76 
41 0 3.52 0 
42 1.76 5.28 0 
43 1.76 3.52 1.76 
44 0 5.28 1.76 
45 3.52 3.52 0 
46 5.28 5.28 0 
47 5.28 3.52 1.76 
48 3.52 5.28 1.76 
49 7.04 3.52 0 
50 8.8 5.28 0 
51 8.8 3.52 1.76 
52 7.04 5.28 1.76 
53 10.56 3.52 0 
54 12.32 5.28 0 
55 12.32 3.52 1.76 
56 10.56 5.28 1.76 
57 14.08 3.52 0 
58 15.84 5.28 0 
59 15.84 3.52 1.76 
60 14.08 5.28 1.76 
61 17.6 3.52 0 
62 19.36 5.28 0 
63 19.36 3.52 1.76 
64 17.6 5.28 1.76 
65 21.12 3.52 0 
66 22.88 5.28 0 
67 22.88 3.52 1.76 
68 21.12 5.28 1.76 
69 24.64 3.52 0 
70 26.4 5.28 0 
71 26.4 3.52 1.76 
72 24.64 5.28 1.76 
73 28.16 3.52 0 
74 29.92 5.28 0 
75 29.92 3.52 1.76 
76 28.16 5.28 1.76 
77 31.68 3.52 0 
78 33.44 5.28 0 
79 33.44 3.52 1.76 
80 31.68 5.28 1.76 
81 0 7.04 0 
82 1.76 8.8 0 
83 1.76 7.04 1.76 
84 0 8.8 1.76 
85 3.52 7.04 0 
86 5.28 8.8 0 
87 5.28 7.04 1.76 
88 3.52 8.8 1.76 
89 7.04 7.04 0 
90 8.8 8.8 0 
91 8.8 7.04 1.76 
92 7.04 8.8 1.76 
93 10.56 7.04 0 
94 12.32 8.8 0 
95 12.32 7.04 1.76 
96 10.56 8.8 1.76 
97 14.08 7.04 0 
98 15.84 8.8 0 
99 15.84 7.04 1.76 
100 14.08 8.8 1.76 
101 17.6 7.04 0 
102 19.36 8.8 0 
103 19.36 7.04 1.76 
104 17.6 8.8 1.76 
105 21.12 7.04 0 
106 22.88 8.8 0 
107 22.88 7.04 1.76 
108 21.12 8.8 1.76 
109 24.64 7.04 0 
110 26.4 8.8 0 
111 26.4 7.04 1.76 
112 24.64 8.8 1.76 
113 28.16 7.04 0 
114 29.92 8.8 0 
115 29.92 7.04 1.76 
116 28.16 8.8 1.76 
117 31.68 7.04 0 
118 33.44 8.8 0 
119 33.44 7.04 1.76 
120 31.68 8.8 1.76 
121 0 10.56 0 
122 1.76 12.32 0 
123 1.76 10.56 1.76 
124 0 12.32 1.76 
125 3.52 10.56 0 
126 5.28 12.32 0 
127 5.28 10.56 1.76 
128 3.52 12.32 1.76 
129 7.04 10.56 0 
130 8.8 12.32 0 
131 8.8 10.56 1.76 
132 7.04 12.32 1.76 
133 10.56 10.56 0 
134 12.32 12.32 0 
135 12.32 10.56 1.76 
136 10.56 12.32 1.76 
137 14.08 10.56 0 
138 15.84 12.32 0 
139 15.84 10.56 1.76 
140 14.08 12.32 1.76 
141 17.6 10.56 0 
142 19.36 12.32 0 
143 19.36 10.56 1.76 
144 17.6 12.32 1.76 
145 21.12 10.56 0 
146 22.88 12.32 0 
147 22.88 10.56 1.76 
148 21.12 12.32 1.76 
149 24.64 10.56 0 
150 26.4 12.32 0 
151 26.4 10.56 1.76 
152 24.64 12.32 1.76 
153 28.16 10.56 0 
154 29.92 12.32 0 
155 29.92 10.56 1.76 
156 28.16 12.32 1.76 
157 31.68 10.56 0 
158 33.44 12.32 0 
159 33.44 10.56 1.76 
160 31.68 12.32 1.76 
161 0 14.08 0 
162 1.76 15.84 0 
163 1.76 14.08 1.76 
164 0 15.84 1.76 
165 3.52 14.08 0 
166 5.28 15.84 0 
167 5.28 14.08 1.76 
168 3.52 15.84 1.76 
169 7.04 14.08 0 
170 8.8 15.84 0 
171 8.8 14.08 1.76 
172 7.04 15.84 1.76 
173 10.56 14.08 0 
174 12.32 15.84 0 
175 12.32 14.08 1.76 
176 10.56 15.84 1.76 
177 14.08 14.08 0 
178 15.84 15.84 0 
179 15.84 14.08 1.76 
180 14.08 15.84 1.76 
181 17.6 14.08 0 
182 19.36 15.84 0 
183 19.36 14.08 1.76 
184 17.6 15.84 1.76 
185 21.12 14.08 0 
186 22.88 15.84 0 
187 22.88 14.08 1.76 
188 21.12 15.84 1.76 
189 24.64 14.08 0 
190 26.4 15.84 0 
191 26.4 14.08 1.76 
192 24.64 15.84 1.76 
193 28.16 14.08 0 
194 29.92 15.84 0 
195 29.92 14.08 1.76 
196 28.16 15.84 1.76 
197 31.68 14.08 0 
198 33.44 15.84 0 
199 33.44 14.08 1.76 
200 31.68 15.84 1.76 
201 0 17.6 0 
202 1.76 19.36 0 
203 1.76 17.6 1.76 
204 0 19.36 1.76 
205 3.52 17.6 0 
206 5.28 19.36 0 
207 5.28 17.6 1.76 
208 3.52 19.36 1.76 
209 7.04 17.6 0 
210 8.8 19.36 0 
211 8.8 17.6 1.76 
212 7.04 19.36 1.76 
213 10.56 17.6 0 
214 12.32 19.36 0 
215 12.32 17.6 1.76 
216 10.56 19.36 1.76 
217 14.08 17.6 0 
218 15.84 19.36 0 
219 15.84 17.6 1.76 
220 14.08 19.36 1.76 
221 17.6 17.6 0 
222 19.36 19.36 0 
223 19.36 17.6 1.76 
224 17.6 19.36 1.76 
225 21.12 17.6 0 
226 22.88 19.36 0 
227 22.88 17.6 1.76 
228 21.12 19.36 1.76 
229 24.64 17.6 0 
230 26.4 19.36 0 
231 26.4 17.6 1.76 
232 24.64 19.36 1.76 
233 28.16 17.6 0 
234 29.92 19.36 0 
235 29.92 17.6 1.76 
236 28.16 19.36 1.76 
237 31.68 17.6 0 
238 33.44 19.36 0 
239 33.44 17.6 1.76 
240 31.68 19.36 1.76 
241 0 21.12 0 
242 1.76 22.88 0 
243 1.76 21.12 1.76 
244 0 22.88 1.76 
245 3.52 21.12 0 
246 5.28 22.88 0 
247 5.28 21.12 1.76 
248 3.52 22.88 1.76 
249 7.04 21.12 0 
250 8.8 22.88 0 
251 8.8 21.12 1.76 
252 7.04 22.88 1.76 
253 10.56 21.12 0 
254 12.32 22.88 0 
255 12.32 21.12 1.76 
256 10.56 22.88 1.76 
257 14.08 21.12 0 
258 15.84 22.88 0 
259 15.84 21.12 1.76 
260 14.08 22.88 1.76 
261 17.6 21.12 0 
262 19.36 22.88 0 
263 19.36 21.12 1.76 
264 17.6 22.88 1.76 
265 21.12 21.12 0 
266 22.88 22.88 0 
267 22.88 21.12 1.76 
268 21.12 22.88 1.76 
269 24.64 21.12 0 
270 26.4 22.88 0 
271 26.4 21.12 1.76 
272 24.64 22.88 1.76 
273 28.16 21.12 0 
274 29.92 22.88 0 
275 29.92 21.12 1.76 
276 28.16 22.88 1.76 
277 31.68 21.12 0 
278 33.44 22.88 0 
279 33.44 21.12 1.76 
280 31.68 22.88 1.76 
281 0 24.64 0 
282 1.76 26.4 0 
283 1.76 24.64 1.76 
284 0 26.4 1.76 
285 3.52 24.64 0 
286 5.28 26.4 0 
287 5.28 24.64 1.76 
288 3.52 26.4 1.76 
289 7.04 24.64 0 
290 8.8 26.4 0 
291 8.8 24.64 1.76 
292 7.04 26.4 1.76 
293 10.56 24.64 0 
294 12.32 26.4 0 
295 12.32 24.64 1.76 
296 10.56 26.4 1.76 
297 14.08 24.64 0 
298 15.84 26.4 0 
299 15.84 24.64 1.76 
300 14.08 26.4 1.76 
301 17.6 24.64 0 
302 19.36 26.4 0 
303 19.36 24.64 1.76 
304 17.6 26.4 1.76 
305 21.12 24.64 0 
306 22.88 26.4 0 
307 22.88 24.64 1.76 
308 21.12 26.4 1.76 
309 24.64 24.64 0 
310 26.4 26.4 0 
311 26.4 24.64 1.76 
312 24.64 26.4 1.76 
313 28.16 24.64 0 
314 29.92 26.4 0 
315 29.92 24.64 1.76 
316 28.16 26.4 1.76 
317 31.68 24.64 0 
318 33.44 26.4 0 
319 33.44 24.64 1.76 
320 31.68 26.4 1.76 
321 0 28.16 0 
322 1.76 29.92 0 
323 1.76 28.16 1.76 
324 0 29.92 1.76 
325 3.52 28.16 0 
326 5.28 29.92 0 
327 5.28 28.16 1.76 
328 3.52 29.92 1.76 
329 7.04 28.16 0 
330 8.8 29.92 0 
331 8.8 28.16 1.76 
332 7.04 29.92 1.76 
333 10.56 28.16 0 
334 12.32 29.92 0 
335 12.32 28.16 1.76 
336 10.56 29.92 1.76 
337 14.08 28.16 0 
338 15.84 29.92 0 
339 15.84 28.16 1.76 
340 14.08 29.92 1.76 
341 17.6 28.16 0 
342 19.36 29.92 0 
343 19.36 28.16 1.76 
344 17.6 29.92 1.76 
345 21.12 28.16 0 
346 22.88 29.92 0 
347 22.88 28.16 1.76 
348 21.12 29.92 1.76 
349 24.64 28.16 0 
350 26.4 29.92 0 
351 26.4 28.16 1.76 
352 24.64 29.92 1.76 
353 28.16 28.16 0 
354 29.92 29.92 0 
355 29.92 28.16 1.76 
356 28.16 29.92 1.76 
357 31.68 28.16 0 
358 33.44 29.92 0 
359 33.44 28.16 1.76 
360 31.68 29.92 1.76 
361 0 31.68 0 
362 1.76 33.44 0 
363 1.76 31.68 1.76 
364 0 33.44 1.76 
365 3.52 31.68 0 
366 5.28 33.44 0 
367 5.28 31.68 1.76 
368 3.52 33.44 1.76 
369 7.04 31.68 0 
370 8.8 33.44 0 
371 8.8 31.68 1.76 
372 7.04 33.44 1.76 
373 10.56 31.68 0 
374 12.32 33.44 0 
375 12.32 31.68 1.76 
376 10.56 33.44 1.76 
377 14.08 31.68 0 
378 15.84 33.44 0 
379 15.84 31.68 1.76 
380 14.08 33.44 1.76 
381 17.6 31.68 0 
382 19.36 33.44 0 
383 19.36 31.68 1.76 
384 17.6 33.44 1.76 
385 21.12 31.68 0 
386 22.88 33.44 0 
387 22.88 31.68 1.76 
388 21.12 33.44 1.76 
389 24.64 31.68 0 
390 26.4 33.44 0 
391 26.4 31.68 1.76 
392 24.64 33.44 1.76 
393 28.16 31.68 0 
394 29.92 33.44 0 
395 29.92 31.68 1.76 
396 28.16 33.44 1.76 
397 31.68 31.68 0 
398 33.44 33.44 0 
399 33.44 31.68 1.76 
400 31.68 33.44 1.76 
401 0 0 3.52 
402 1.76 1.76 3.52 
403 1.76 0 5.28 
404 0 1.76 5.28 
405 3.52 0 3.52 
406 5.28 1.76 3.52 
407 5.28 0 5.28 
408 3.52 1.76 5.28 
409 7.04 0 3.52 
410 8.8 1.76 3.52 
411 8.8 0 5.28 
412 7.04 1.76 5.28 
413 10.56 0 3.52 
414 12.32 1.76 3.52 
415 12.32 0 5.28 
416 10.56 1.76 5.28 
417 14.08 0 3.52 
418 15.84 1.76 3.52 
419 15.84 0 5.28 
420 14.08 1.76 5.28 
421 17.6 0 3.52 
422 19.36 1.76 3.52 
423 19.36 0 5.28 
424 17.6 1.76 5.28 
425 21.12 0 3.52 
426 22.88 1.76 3.52 
427 22.88 0 5.28 
428 21.12 1.76 5.28 
429 24.64 0 3.52 
430 26.4 1.76 3.52 
431 26.4 0 5.28 
432 24.64 1.76 5.28 
433 28.16 0 3.52 
434 29.92 1.76 3.52 
435 29.92 0 5.28 
436 28.16 1.76 5.28 
437 31.68 0 3.52 
438 33.44 1.76 3.52 
439 33.44 0 5.28 
440 31.68 1.76 5.28 
441 0 3.52 3.52 
442 1.76 5.28 3.52 
443 1.76 3.52 5.28 
444 0 5.28 5.28 
445 3.52 3.52 3.52 
446 5.28 5.28 3.52 
447 5.28 3.52 5.28 
448 3.52 5.28 5.28 
449 7.04 3.52 3.52 
450 8.8 5.28 3.52 
451 8.8 3.52 5.28 
452 7.04 5.28 5.28 
453 10.56 3.52 3.52 
454 12.32 5.28 3.52 
455 12.32 3.52 5.28 
456 10.56 5.28 5.28 
457 14.08 3.52 3.52 
458 15.84 5.28 3.52 
459 15.84 3.52 5.28 
460 14.08 5.28 5.28 
461 17.6 3.52 3.52 
462 19.36 5.28 3.52 
463 19.36 3.52 5.28 
464 17.6 5.28 5.28 
465 21.12 3.52 3.52 
466 22.88 5.28 3.52 
467 22.88 3.52 5.28 
468 21.12 5.28 5.28 
469 24.64 3.52 3.52 
470 26.4 5.28 3.52 
471 26.4 3.52 5.28 
472 24.64 5.28 5.28 
473 28.16 3.52 3.52 
474 29.92 5.28 3.52 
475 29.92 3.52 5.28 
476 28.16 5.28 5.28 
477 31.68 3.52 3.52 
478 33.44 5.28 3.52 
479 33.44 3.52 5.28 
480 31.68 5.28 5.28 
481 0 7.04 3.52 
482 1.76 8.8 3.52 
483 1.76 7.04 5.28 
484 0 8.8 5.28 
485 3.52 7.04 3.52 
486 5.28 8.8 3.52 
487 5.28 7.04 5.28 
488 3.52 8.8 5.28 
489 7.04 7.04 3.52 
490 8.8 8.8 3.52 
491 8.8 7.04 5.28 
492 7.04 8.8 5.28 
493 10.56 7.04 3.52 
494 12.32 8.8 3.52 
495 12.32 7.04 5.28 
496 10.56 8.8 5.28 
497 14.08 7.04 3.52 
498 15.84 8.8 3.52 
499 15.84 7.04 5.28 
500 14.08 8.8 5.28 
501 17.6 7.04 3.52 
502 19.36 8.8 3.52 
503 19.36 7.04 5.28 
504 17.6 8.8 5.28 
505 21.12 7.04 3.52 
506 22.88 8.8 3.52 
507 22.88 7.04 5.28 
508 21.12 8.8 5.28 
509 24.64 7.04 3.52 
510 26.4 8.8 3.52 
511 26.4 7.04 5.28 
512 24.64 8.8 5.28 
513 28.16 7.04 3.52 
514 29.92 8.8 3.52 
515 29.92 7.04 5.28 
516 28.16 8.8 5.28 
517 31.68 7.04 3.52 
518 33.44 8.8 3.52 
519 33.44 7.04 5.28 
520 31.68 8.8 5.28 
521 0 10.56 3.52 
522 1.76 12.32 3.52 
523 1.76 10.56 5.28 
524 0 12.32 5.28 
525 3.52 10.56 3.52 
526 5.28 12.32 3.52 
527 5.28 10.56 5.28 
528 3.52 12.32 5.28 
529 7.04 10.56 3.52 
530 8.8 12.32 3.52 
531 8.8 10.56 5.28 
532 7.04 12.32 5.28 
533 10.56 10.56 3.52 
534 12.32 12.32 3.52 
535 12.32 10.56 5.28 
536 10.56 12.32 5.28 
537 14.08 10.56 3.52 
538 15.84 12.32 3.52 
539 15.84 10.56 5.28 
540 14.08 12.32 5.28 
541 17.6 10.56 3.52 
542 19.36 12.32 3.52 
543 19.36 10.56 5.28 
544 17.6 12.32 5.28 
545 21.12 10.56 3.52 
546 22.88 12.32 3.52 
547 22.88 10.56 5.28 
548 21.12 12.32 5.28 
549 24.64 10.56 3.52 
550 26.4 12.32 3.52 
551 26.4 10.56 5.28 
552 24.64 12.32 5.28 
553 28.16 10.56 3.52 
554 29.92 12.32 3.52 
555 29.92 10.56 5.28 
556 28.16 12.32 5.28 
557 31.68 10.56 3.52 
558 33.44 12.32 3.52 
559 33.44 10.56 5.28 
560 31.68 12.32 5.28 
561 0 14.08 3.52 
562 1.76 15.84 3.52 
563 1.76 14.08 5.28 
564 0 15.84 5.28 
565 3.52 14.08 3.52 
566 5.28 15.84 3.52 
567 5.28 14.08 5.28 
568 3.52 15.84 5.28 
569 7.04 14.08 3.52 
570 8.8 15.84 3.52 
571 8.8 14.08 5.28 
572 7.04 15.84 5.28 
573 10.56 14.08 3.52 
574 12.32 15.84 3.52 
575 12.32 14.08 5.28 
576 10.56 15.84 5.28 
577 14.08 14.08 3.52 
578 15.84 15.84 3.52 
579 15.84 14.08 5.28 
580 14.08 15.84 5.28 
581 17.6 14.08 3.52 
582 19.36 15.84 3.52 
583 19.36 14.08 5.28 
584 17.6 15.84 5.28 
585 21.12 14.08 3.52 
586 22.88 15.84 3.52 
587 22.88 14.08 5.28 
588 21.12 15.84 5.28 
589 24.64 14.08 3.52 
590 26.4 15.84 3.52 
591 26.4 14.08 5.28 
592 24.64 15.84 5.28 
593 28.16 14.08 3.52 
594 29.92 15.84 3.52 
595 29.92 14.08 5.28 
596 28.16 15.84 5.28 
597 31.68 14.08 3.52 
598 33.44 15.84 3.52 
599 33.44 14.08 5.28 
600 31.68 15.84 5.28 
601 0 17.6 3.52 
602 1.76 19.36 3.52 
603 1.76 17.6 5.28 
604 0 19.36 5.28 
605 3.52 17.6 3.52 
606 5.28 19.36 3.52 
607 5.28 17.6 5.28 
608 3.52 19.36 5.28 
609 7.04 17.6 3.52 
610 8.8 19.36 3.52 
611 8.8 17.6 5.28 
612 7.04 19.36 5.28 
613 10.56 17.6 3.52 
614 12.32 19.36 3.52 
615 12.32 17.6 5.28 
616 10.56 19.36 5.28 
617 14.08 17.6 3.52 
618 15.84 19.36 3.52 
619 15.84 17.6 5.28 
620 14.08 19.36 5.28 
621 17.6 17.6 3.52 
622 19.36 19.36 3.52 
623 19.36 17.6 5.28 
624 17.6 19.36 5.28 
625 21.12 17.6 3.52 
626 22.88 19.36 3.52 
627 22.88 17.6 5.28 
628 21.12 19.36 5.28 
629 24.64 17.6 3.52 
630 26.4 19.36 3.52 
631 26.4 17.6 5.28 
632 24.64 19.36 5.28 
633 28.16 17.6 3.52 
634 29.92 19.36 3.52 
635 29.92 17.6 5.28 
636 28.16 19.36 5.28 
637 31.68 17.6 3.52 
638 33.44 19.36 3.52 
639 33.44 17.6 5.28 
640 31.68 19.36 5.28 
641 0 21.12 3.52 
642 1.76 22.88 3.52 
643 1.76 21.12 5.28 
644 0 22.88 5.28 
645 3.52 21.12 3.52 
646 5.28 22.88 3.52 
647 5.28 21.12 5.28 
648 3.52 22.88 5.28 
649 7.04 21.12 3.52 
650 8.8 22.88 3.52 
651 8.8 21.12 5.28 
652 7.04 22.88 5.28 
653 10.56 21.12 3.52 
654 12.32 22.88 3.52 
655 12.32 21.12 5.28 
656 10.56 22.88 5.28 
657 14.08 21.12 3.52 
658 15.84 22.88 3.52 
659 15.84 21.12 5.28 
660 14.08 22.88 5.28 
661 17.6 21.12 3.52 
662 19.36 22.88 3.52 
663 19.36 21.12 5.28 
664 17.6 22.88 5.28 
665 21.12 21.12 3.52 
666 22.88 22.88 3.52 
667 22.88 21.12 5.28 
668 21.12 22.88 5.28 
669 24.64 21.12 3.52 
670 26.4 22.88 3.52 
671 26.4 21.12 5.28 
672 24.64 22.88 5.28 
673 28.16 21.12 3.52 
674 29.92 22.88 3.52 
675 29.92 21.12 5.28 
676 28.16 22.88 5.28 
677 31.68 21.12 3.52 
678 33.44 22.88 3.52 
679 33.44 21.12 5.28 
680 31.68 22.88 5.28 
681 0 24.64 3.52 
682 1.76 26.4 3.52 
683 1.76 24.64 5.28 
684 0 26.4 5.28 
685 3.52 24.64 3.52 
686 5.28 26.4 3.52 
687 5.28 24.64 5.28 
688 3.52 26.4 5.28 
689 7.04 24.64 3.52 
690 8.8 26.4 3.52 
691 8.8 24.64 5.28 
692 7.04 26.4 5.28 
693 10.56 24.64 3.52 
694 12.32 26.4 3.52 
695 12.32 24.64 5.28 
696 10.56 26.4 5.28 
697 14.08 24.64 3.52 
698 15.84 26.4 3.52 
699 15.84 24.64 5.28 
700 14.08 26.4 5.28 
701 17.6 24.64 3.52 
702 19.36 26.4 3.52 
703 19.36 24.64 5.28 
704 17.6 26.4 5.28 
705 21.12 24.64 3.52 
706 22.88 26.4 3.52 
707 22.88 24.64 5.28 
708 21.12 26.4 5.28 
709 24.64 24.64 3.52 
710 26.4 26.4 3.52 
711 26.4 24.64 5.28 
712 24.64 26.4 5.28 
713 28.16 24.64 3.52 
714 29.92 26.4 3.52 
715 29.92 24.64 5.28 
716 28.16 26.4 5.28 
717 31.68 24.64 3.52 
718 33.44 26.4 3.52 
719 33.44 24.64 5.28 
720 31.68 26.4 5.28 
721 0 28.16 3.52 
722 1.76 29.92 3.52 
723 1.76 28.16 5.28 
724 0 29.92 5.28 
725 3.52 28.16 3.52 
726 5.28 29.92 3.52 
727 5.28 28.16 5.28 
728 3.52 29.92 5.28 
729 7.04 28.16 3.52 
730 8.8 29.92 3.52 
731 8.8 28.16 5.28 
732 7.04 29.92 5.28 
733 10.56 28.16 3.52 
734 12.32 29.92 3.52 
735 12.32 28.16 5.28 
736 10.56 29.92 5.28 
737 14.08 28.16 3.52 
738 15.84 29.92 3.52 
739 15.84 28.16 5.28 
740 14.08 29.92 5.28 
741 17.6 28.16 3.52 
742 19.36 29.92 3.52 
743 19.36 28.16 5.28 
744 17.6 29.92 5.28 
745 21.12 28.16 3.52 
746 22.88 29.92 3.52 
747 22.88 28.16 5.28 
748 21.12 29.92 5.28 
749 24.64 28.16 3.52 
750 26.4 29.92 3.52 
751 26.4 28.16 5.28 
752 24.64 29.92 5.28 
753 28.16 28.16 3.52 
754 29.92 29.92 3.52 
755 29.92 28.16 5.28 
756 28.16 29.92 5.28 
757 31.68 28.16 3.52 
758 33.44 29.92 3.52 
759 33.44 28.16 5.28 
760 31.68 29.92 5.28 
761 0 31.68 3.52 
762 1.76 33.44 3.52 
763 1.76 31.68 5.28 
764 0 33.44 5.28 
765 3.52 31.68 3.52 
766 5.28 33.44 3.52 
767 5.28 31.68 5.28 
768 3.52 33.44 5.28 
769 7.04 31.68 3.52 
770 8.8 33.44 3.52 
771 8.8 31.68 5.28 
772 7.04 33.44 5.28 
773 10.56 31.68 3.52 
774 12.32 33.44 3.52 
775 12.32 31.68 5.28 
776 10.56 33.44 5.28 
777 14.08 31.68 3.52 
778 15.84 33.44 3.52 
779 15.84 31.68 5.28 
780 14.08 33.44 5.28 
781 17.6 31.68 3.52 
782 19.36 33.44 3.52 
783 19.36 31.68 5.28 
784 17.6 33.44 5.28 
785 21.12 31.68 3.52 
786 22.88 33.44 3.52 
787 22.88 31.68 5.28 
788 21.12 33.44 5.28 
789 24.64 31.68 3.52 
790 26.4 33.44 3.52 
791 26.4 31.68 5.28 
792 24.64 33.44 5.28 
793 28.16 31.68 3.52 
794 29.92 33.44 3.52 
795 29.92 31.68 5.28 
796 28.16 33.44 5.28 
797 31.68 31.68 3.52 
798 33.44 33.44 3.52 
799 33.44 31.68 5.28 
800 31.68 33.44 5.28 
801 0 0 7.04 
802 1.76 1.76 7.04 
803 1.76 0 8.8 
804 0 1.76 8.8 
805 3.52 0 7.04 
806 5.28 1.76 7.04 
807 5.28 0 8.8 
808 3.52 1.76 8.8 
809 7.04 0 7.04 
810 8.8 1.76 7.04 
811 8.8 0 8.8 
812 7.04 1.76 8.8 
813 10.56 0 7.04 
814 12.32 1.76 7.04 
815 12.32 0 8.8 
816 10.56 1.76 8.8 
817 14.08 0 7.04 
818 15.84 1.76 7.04 
819 15.84 0 8.8 
820 14.08 1.76 8.8 
821 17.6 0 7.04 
822 19.36 1.76 7.04 
823 19.36 0 8.8 
824 17.6 1.76 8.8 
825 21.12 0 7.04 
826 22.88 1.76 7.04 
827 22.88 0 8.8 
828 21.12 1.76 8.8 
829 24.64 0 7.04 
830 26.4 1.76 7.04 
831 26.4 0 8.8 
832 24.64 1.76 8.8 
833 28.16 0 7.04 
834 29.92 1.76 7.04 
835 29.92 0 8.8 
836 28.16 1.76 8.8 
837 31.68 0 7.04 
838 33.44 1.76 7.04 
839 33.44 0 8.8 
840 31.68 1.76 8.8 
841 0 3.52 7.04 
842 1.76 5.28 7.04 
843 1.76 3.52 8.8 
844 0 5.28 8.8 
845 3.52 3.52 7.04 
846 5.28 5.28 7.04 
847 5.28 3.52 8.8 
848 3.52 5.28 8.8 
849 7.04 3.52 7.04 
850 8.8 5.28 7.04 
851 8.8 3.52 8.8 
852 7.04 5.28 8.8 
853 10.56 3.52 7.04 
854 12.32 5.28 7.04 
855 12.32 3.52 8.8 
856 10.56 5.28 8.8 
857 14.08 3.52 7.04 
858 15.84 5.28 7.04 
859 15.84 3.52 8.8 
860 14.08 5.28 8.8 
861 17.6 3.52 7.04 
862 19.36 5.28 7.04 
863 19.36 3.52 8.8 
864 17.6 5.28 8.8 
865 21.12 3.52 7.04 
866 22.88 5.28 7.04 
867 22.88 3.52 8.8 
868 21.12 5.28 8.8 
869 24.64 3.52 7.04 
870 26.4 5.28 7.04 
871 26.4 3.52 8.8 
872 24.64 5.28 8.8 
873 28.16 3.52 7.04 
874 29.92 5.28 7.04 
875 29.92 3.52 8.8 
876 28.16 5.28 8.8 
877 31.68 3.52 7.04 
878 33.44 5.28 7.04 
879 33.44 3.52 8.8 
880 31.68 5.28 8.8 
881 0 7.04 7.04 
882 1.76 8.8 7.04 
883 1.76 7.04 8.8 
884 0 8.8 8.8 
885 3.52 7.04 7.04 
886 5.28 8.8 7.04 
887 5.28 7.04 8.8 
888 3.52 8.8 8.8 
889 7.04 7.04 7.04 
890 8.8 8.8 7.04 
891 8.8 7.04 8.8 
892 7.04 8.8 8.8 
893 10.56 7.04 7.04 
894 12.32 8.8 7.04 
895 12.32 7.04 8.8 
896 10.56 8.8 8.8 
897 14.08 7.04 7.04 
898 15.84 8.8 7.04 
899 15.84 7.04 8.8 
900 14.08 8.8 8.8 
901 17.6 7.04 7.04 
902 19.36 8.8 7.04 
903 19.36 7.04 8.8 
904 17.6 8.8 8.8 
905 21.12 7.04 7.04 
906 22.88 8.8 7.04 
907 22.88 7.04 8.8 
908 21.12 8.8 8.8 
909 24.64 7.04 7.04 
910 26.4 8.8 7.04 
911 26.4 7.04 8.8 
912 24.64 8.8 8.8 
913 28.16 7.04 7.04 
914 29.92 8.8 7.04 
915 29.92 7.04 8.8 
916 28.16 8.8 8.8 
917 31.68 7.04 7.04 
918 33.44 8.8 7.04 
919 33.44 7.04 8.8 
920 31.68 8.8 8.8 
921 0 10.56 7.04 
922 1.76 12.32 7.04 
923 1.76 10.56 8.8 
924 0 12.32 8.8 
925 3.52 10.56 7.04 
926 5.28 12.32 7.04 
927 5.28 10.56 8.8 
928 3.52 12.32 8.8 
929 7.04 10.56 7.04 
930 8.8 12.32 7.04 
931 8.8 10.56 8.8 
932 7.04 12.32 8.8 
933 10.56 10.56 7.04 
934 12.32 12.32 7.04 
935 12.32 10.56 8.8 
936 10.56 12.32 8.8 
937 14.08 10.56 7.04 
938 15.84 12.32 7.04 
939 15.84 10.56 8.8 
940 14.08 12.32 8.8 
941 17.6 10.56 7.04 
942 19.36 12.32 7.04 
943 19.36 10.56 8.8 
944 17.6 12.32 8.8 
945 21.12 10.56 7.04 
946 22.88 12.32 7.04 
947 22.88 10.56 8.8 
948 21.12 12.32 8.8 
949 24.64 10.56 7.04 
950 26.4 12.32 7.04 
951 26.4 10.56 8.8 
952 24.64 12.32 8.8 
953 28.16 10.56 7.04 
954 29.92 12.32 7.04 
955 29.92 10.56 8.8 
956 28.16 12.32 8.8 
957 31.68 10.56 7.04 
958 33.44 12.32 7.04 
959 33.44 10.56 8.8 
960 31.68 12.32 8.8 
961 0 14.08 7.04 
962 1.76 15.84 7.04 
963 1.76 14.08 8.8 
964 0 15.84 8.8 
965 3.52 14.08 7.04 
966 5.28 15.84 7.04 
967 5.28 14.08 8.8 
968 3.52 15.84 8.8 
969 7.04 14.08 7.04 
970 8.8 15.84 7.04 
971 8.8 14.08 8.8 
972 7.04 15.84 8.8 
973 10.56 14.08 7.04 
974 12.32 15.84 7.04 
975 12.32 14.08 8.8 
976 10.56 15.84 8.8 
977 14.08 14.08 7.04 
978 15.84 15.84 7.04 
979 15.84 14.08 8.8 
980 14.08 15.84 8.8 
981 17.6 14.08 7.04 
982 19.36 15.84 7.04 
983 19.36 14.08 8.8 
984 17.6 15.84 8.8 
985 21.12 14.08 7.04 
986 22.88 15.84 7.04 
987 22.88 14.08 8.8 
988 21.12 15.84 8.8 
989 24.64 14.08 7.04 
990 26.4 15.84 7.04 
991 26.4 14.08 8.8 
992 24.64 15.84 8.8 
993 28.16 14.08 7.04 
994 29.92 15.84 7.04 
995 29.92 14.08 8.8 
996 28.16 15.84 8.8 
997 31.68 14.08 7.04 
998 33.44 15.84 7.04 
999 33.44 14.08 8.8 
1000 31.68 15.84 8.8 
1001 0 17.6 7.04 
1002 1.76 19.36 7.04 
1003 1.76 17.6 8.8 
1004 0 19.36 8.8 
1005 3.52 17.6 7.04 
1006 5.28 19.36 7.04 
1007 5.28 17.6 8.8 
1008 3.52 19.36 8.8 
1009 7.04 17.6 7.04 
1010 8.8 19.36 7.04 
1011 8.8 17.6 8.8 
1012 7.04 19.36 8.8 
1013 10.56 17.6 7.04 
1014 12.32 19.36 7.04 
1015 12.32 17.6 8.8 
1016 10.56 19.36 8.8 
1017 14.08 17.6 7.04 
1018 15.84 19.36 7.04 
1019 15.84 17.6 8.8 
1020 14.08 19.36 8.8 
1021 17.6 17.6 7.04 
1022 19.36 19.36 7.04 
1023 19.36 17.6 8.8 
1024 17.6 19.36 8.8 
1025 21.12 17.6 7.04 
1026 22.88 19.36 7.04 
1027 22.88 17.6 8.8 
1028 21.12 19.36 8.8 
1029 24.64 17.6 7.04 
1030 26.4 19.36 7.04 
1031 26.4 17.6 8.8 
1032 24.64 19.36 8.8 
1033 28.16 17.6 7.04 
1034 29.92 19.36 7.04 
1035 29.92 17.6 8.8 
1036 28.16 19.36 8.8 
1037 31.68 17.6 7.04 
1038 33.44 19.36 7.04 
1039 33.44 17.6 8.8 
1040 31.68 19.36 8.8 
1041 0 21.12 7.04 
1042 1.76 22.88 7.04 
1043 1.76 21.12 8.8 
1044 0 22.88 8.8 
1045 3.52 21.12 7.04 
1046 5.28 22.88 7.04 
1047 5.28 21.12 8.8 
1048 3.52 22.88 8.8 
1049 7.04 21.12 7.04 
1050 8.8 22.88 7.04 
1051 8.8 21.12 8.8 
1052 7.04 22.88 8.8 
1053 10.56 21.12 7.04 
1054 12.32 22.88 7.04 
1055 12.32 21.12 8.8 
1056 10.56 22.88 8.8 
1057 14.08 21.12 7.04 
1058 15.84 22.88 7.04 
1059 15.84 21.12 8.8 
1060 14.08 22.88 8.8 
1061 17.6 21.12 7.04 
1062 19.36 22.88 7.04 
1063 19.36 21.12 8.8 
1064 17.6 22.88 8.8 
1065 21.12 21.12 7.04 
1066 22.88 22.88 7.04 
1067 22.88 21.12 8.8 
1068 21.12 22.88 8.8 
1069 24.64 21.12 7.04 
1070 26.4 22.88 7.04 
1071 26.4 21.12 8.8 
1072 24.64 22.88 8.8 
1073 28.16 21.12 7.04 
1074 29.92 22.88 7.04 
1075 29.92 21.12 8.8 
1076 28.16 22.88 8.8 
1077 31.68 21.12 7.04 
1078 33.44 22.88 7.04 
1079 33.44 21.12 8.8 
1080 31.68 22.88 8.8 
1081 0 24.64 7.04 
1082 1.76 26.4 7.04 
1083 1.76 24.64 8.8 
1084 0 26.4 8.8 
1085 3.52 24.64 7.04 
1086 5.28 26.4 7.04 
1087 5.28 24.64 8.8 
1088 3.52 26.4 8.8 
1089 7.04 24.64 7.04 
1090 8.8 26.4 7.04 
1091 8.8 24.64 8.8 
1092 7.04 26.4 8.8 
1093 10.56 24.64 7.04 
1094 12.32 26.4 7.04 
1095 12.32 24.64 8.8 
1096 10.56 26.4 8.8 
1097 14.08 24.64 7.04 
1098 15.84 26.4 7.04 
1099 15.84 24.64 8.8 
1100 14.08 26.4 8.8 
1101 17.6 24.64 7.04 
1102 19.36 26.4 7.04 
1103 19.36 24.64 8.8 
1104 17.6 26.4 8.8 
1105 21.12 24.64 7.04 
1106 22.88 26.4 7.04 
1107 22.88 24.64 8.8 
1108 21.12 26.4 8.8 
1109 24.64 24.64 7.04 
1110 26.4 26.4 7.04 
1111 26.4 24.64 8.8 
1112 24.64 26.4 8.8 
1113 28.16 24.64 7.04 
1114 29.92 26.4 7.04 
1115 29.92 24.64 8.8 
1116 28.16 26.4 8.8 
1117 31.68 24.64 7.04 
1118 33.44 26.4 7.04 
1119 33.44 24.64 8.8 
1120 31.68 26.4 8.8 
1121 0 28.16 7.04 
1122 1.76 29.92 7.04 
1123 1.76 28.16 8.8 
1124 0 29.92 8.8 
1125 3.52 28.16 7.04 
1126 5.28 29.92 7.04 
1127 5.28 28.16 8.8 
1128 3.52 29.92 8.8 
1129 7.04 28.16 7.04 
1130 8.8 29.92 7.04 
1131 8.8 28.16 8.8 
1132 7.04 29.92 8.8 
1133 10.56 28.16 7.04 
1134 12.32 29.92 7.04 
1135 12.32 28.16 8.8 
1136 10.56 29.92 8.8 
1137 14.08 28.16 7.04 
1138 15.84 29.92 7.04 
1139 15.84 28.16 8.8 
1140 14.08 29.92 8.8 
1141 17.6 28.16 7.04 
1142 19.36 29.92 7.04 
1143 19.36 28.16 8.8 
1144 17.6 29.92 8.8 
1145 21.12 28.16 7.04 
1146 22.88 29.92 7.04 
1147 22.88 28.16 8.8 
1148 21.12 29.92 8.8 
1149 24.64 28.16 7.04 
1150 26.4 29.92 7.04 
1151 26.4 28.16 8.8 
1152 24.64 29.92 8.8 
1153 28.16 28.16 7.04 
1154 29.92 29.92 7.04 
1155 29.92 28.16 8.8 
1156 28.16 29.92 8.8 
1157 31.68 28.16 7.04 
1158 33.44 29.92 7.04 
1159 33.44 28.16 8.8 
1160 31.68 29.92 8.8 
1161 0 31.68 7.04 
1162 1.76 33.44 7.04 
1163 1.76 31.68 8.8 
1164 0 33.44 8.8 
1165 3.52 31.68 7.04 
1166 5.28 33.44 7.04 
1167 5.28 31.68 8.8 
1168 3.52 33.44 8.8 
1169 7.04 31.68 7.04 
1170 8.8 33.44 7.04 
1171 8.8 31.68 8.8 
1172 7.04 33.44 8.8 
1173 10.56 31.68 7.04 
1174 12.32 33.44 7.04 
1175 12.32 31.68 8.8 
1176 10.56 33.44 8.8 
1177 14.08 31.68 7.04 
1178 15.84 33.44 7.04 
1179 15.84 31.68 8.8 
1180 14.08 33.44 8.8 
1181 17.6 31.68 7.04 
1182 19.36 33.44 7.04 
1183 19.36 31.68 8.8 
1184 17.6 33.44 8.8 
1185 21.12 31.68 7.04 
1186 22.88 33.44 7.04 
1187 22.88 31.68 8.8 
1188 21.12 33.44 8.8 
1189 24.64 31.68 7.04 
1190 26.4 33.44 7.04 
1191 26.4 31.68 8.8 
1192 24.64 33.44 8.8 
1193 28.16 31.68 7.04 
1194 29.92 33.44 7.04 
1195 29.92 31.68 8.8 
1196 28.16 33.44 8.8 
1197 31.68 31.68 7.04 
1198 33.44 33.44 7.04 
1199 33.44 31.68 8.8 
1200 31.68 33.44 8.8 
1201 0 0 10.56 
1202 1.76 1.76 10.56 
1203 1.76 0 12.32 
1204 0 1.76 12.32 
1205 3.52 0 10.56 
1206 5.28 1.76 10.56 
1207 5.28 0 12.32 
1208 3.52 1.76 12.32 
1209 7.04 0 10.56 
1210 8.8 1.76 10.56 
1211 8.8 0 12.32 
1212 7.04 1.76 12.32 
1213 10.56 0 10.56 
1214 12.32 1.76 10.56 
1215 12.32 0 12.32 
1216 10.56 1.76 12.32 
1217 14.08 0 10.56 
1218 15.84 1.76 10.56 
1219 15.84 0 12.32 
1220 14.08 1.76 12.32 
1221 17.6 0 10.56 
1222 19.36 1.76 10.56 
1223 19.36 0 12.32 
1224 17.6 1.76 12.32 
1225 21.12 0 10.56 
1226 22.88 1.76 10.56 
1227 22.88 0 12.32 
1228 21.12 1.76 12.32 
1229 24.64 0 10.56 
1230 26.4 1.76 10.56 
1231 26.4 0 12.32 
1232 24.64 1.76 12.32 
1233 28.16 0 10.56 
1234 29.92 1.76 10.56 
1235 29.92 0 12.32 
1236 28.16 1.76 12.32 
1237 31.68 0 10.56 
1238 33.44 1.76 10.56 
1239 33.44 0 12.32 
1240 31.68 1.76 12.32 
1241 0 3.52 10.56 
1242 1.76 5.28 10.56 
1243 1.76 3.52 12.32 
1244 0 5.28 12.32 
1245 3.52 3.52 10.56 
1246 5.28 5.28 10.56 
1247 5.28 3.52 12.32 
1248 3.52 5.28 12.32 
1249 7.04 3.52 10.56 
1250 8.8 5.28 10.56 
1251 8.8 3.52 12.32 
1252 7.04 5.28 12.32 
1253 10.56 3.52 10.56 
1254 12.32 5.28 10.56 
1255 12.32 3.52 12.32 
1256 10.56 5.28 12.32 
1257 14.08 3.52 10.56 
1258 15.84 5.28 10.56 
1259 15.84 3.52 12.32 
1260 14.08 5.28 12.32 
1261 17.6 3.52 10.56 
1262 19.36 5.28 10.56 
1263 19.36 3.52 12.32 
1264 17.6 5.28 12.32 
1265 21.12 3.52 10.56 
1266 22.88 5.28 10.56 
1267 22.88 3.52 12.32 
1268 21.12 5.28 12.32 
1269 24.64 3.52 10.56 
1270 26.4 5.28 10.56 
1271 26.4 3.52 12.32 
1272 24.64 5.28 12.32 
1273 28.16 3.52 10.56 
1274 29.92 5.28 10.56 
1275 29.92 3.52 12.32 
1276 28.16 5.28 12.32 
1277 31.68 3.52 10.56 
1278 33.44 5.28 10.56 
1279 33.44 3.52 12.32 
1280 31.68 5.28 12.32 
1281 0 7.04 10.56 
1282 1.76 8.8 10.56 
1283 1.76 7.04 12.32 
1284 0 8.8 12.32 
1285 3.52 7.04 10.56 
1286 5.28 8.8 10.56 
1287 5.28 7.04 12.32 
1288 3.52 8.8 12.32 
1289 7.04 7.04 10.56 
1290 8.8 8.8 10.56 
1291 8.8 7.04 12.32 
1292 7.04 8.8 12.32 
1293 10.56 7.04 10.56 
1294 12.32 8.8 10.56 
1295 12.32 7.04 12.32 
1296 10.56 8.8 12.32 
1297 14.08 7.04 10.56 
1298 15.84 8.8 10.56 
1299 15.84 7.04 12.32 
1300 14.08 8.8 12.32 
1301 17.6 7.04 10.56 
1302 19.36 8.8 10.56 
1303 19.36 7.04 12.32 
1304 17.6 8.8 12.32 
1305 21.12 7.04 10.56 
1306 22.88 8.8 10.56 
1307 22.88 7.04 12.32 
1308 21.12 8.8 12.32 
1309 24.64 7.04 10.56 
1310 26.4 8.8 10.56 
1311 26.4 7.04 12.32 
1312 24.64 8.8 12.32 
1313 28.16 7.04 10.56 
1314 29.92 8.8 10.56 
1315 29.92 7.04 12.32 
1316 28.16 8.8 12.32 
1317 31.68 7.04 10.56 
1318 33.44 8.8 10.56 
1319 33.44 7.04 12.32 
1320 31.68 8.8 12.32 
1321 0 10.56 10.56 
1322 1.76 12.32 10.56 
1323 1.76 10.56 12.32 
1324 0 12.32 12.32 
1325 3.52 10.56 10.56 
1326 5.28 12.32 10.56 
1327 5.28 10.56 12.32 
1328 3.52 12.32 12.32 
1329 7.04 10.56 10.56 
1330 8.8 12.32 10.56 
1331 8.8 10.56 12.32 
1332 7.04 12.32 12.32 
1333 10.56 10.56 10.56 
1334 12.32 12.32 10.56 
1335 12.32 10.56 12.32 
1336 10.56 12.32 12.32 
1337 14.08 10.56 10.56 
1338 15.84 12.32 10.56 
1339 15.84 10.56 12.32 
1340 14.08 12.32 12.32 
1341 17.6 10.56 10.56 
1342 19.36 12.32 10.56 
1343 19.36 10.56 12.32 
1344 17.6 12.32 12.32 
1345 21.12 10.56 10.56 
1346 22.88 12.32 10.56 
1347 22.88 10.56 12.32 
1348 21.12 12.32 12.32 
1349 24.64 10.56 10.56 
1350 26.4 12.32 10.56 
1351 26.4 10.56 12.32 
1352 24.64 12.32 12.32 
1353 28.16 10.56 10.56 
1354 29.92 12.32 10.56 
1355 29.92 10.56 12.32 
1356 28.16 12.32 12.32 
1357 31.68 10.56 10.56 
1358 33.44 12.32 10.56 
1359 33.44 10.56 12.32 
1360 31.68 12.32 12.32 
1361 0 14.08 10.56 
1362 1.76 15.84 10.56 
1363 1.76 14.08 12.32 
1364 0 15.84 12.32 
1365 3.52 14.08 10.56 
1366 5.28 15.84 10.56 
1367 5.28 14.08 12.32 
1368 3.52 15.84 12.32 
1369 7.04 14.08 10.56 
1370 8.8 15.84 10.56 
1371 8.8 14.08 12.32 
1372 7.04 15.84 12.32 
1373 10.56 14.08 10.56 
1374 12.32 15.84 10.56 
1375 12.32 14.08 12.32 
1376 10.56 15.84 12.32 
1377 14.08 14.08 10.56 
1378 15.84 15.84 10.56 
1379 15.84 14.08 12.32 
1380 14.08 15.84 12.32 
1381 17.6 14.08 10.56 
1382 19.36 15.84 10.56 
1383 19.36 14.08 12.32 
1384 17.6 15.84 12.32 
1385 21.12 14.08 10.56 
1386 22.88 15.84 10.56 
1387 22.88 14.08 12.32 
1388 21.12 15.84 12.32 
1389 24.64 14.08 10.56 
1390 26.4 15.84 10.56 
1391 26.4 14.08 12.32 
1392 24.64 15.84 12.32 
1393 28.16 14.08 10.56 
1394 29.92 15.84 10.56 
1395 29.92 14.08 12.32 
1396 28.16 15.84 12.32 
1397 31.68 14.08 10.56 
1398 33.44 15.84 10.56 
1399 33.44 14.08 12.32 
1400 31.68 15.84 12.32 
1401 0 17.6 10.56 
1402 1.76 19.36 10.56 
1403 1.76 17.6 12.32 
1404 0 19.36 12.32 
1405 3.52 17.6 10.56 
1406 5.28 19.36 10.56 
1407 5.28 17.6 12.32 
1408 3.52 19.36 12.32 
1409 7.04 17.6 10.56 
1410 8.8 19.36 10.56 
1411 8.8 17.6 12.32 
1412 7.04 19.36 12.32 
1413 10.56 17.6 10.56 
1414 12.32 19.36 10.56 
1415 12.32 17.6 12.32 
1416 10.56 19.36 12.32 
1417 14.08 17.6 10.56 
1418 15.84 19.36 10.56 
1419 15.84 17.6 12.32 
1420 14.08 19.36 12.32 
1421 17.6 17.6 10.56 
1422 19.36 19.36 10.56 
1423 19.36 17.6 12.32 
1424 17.6 19.36 12.32 
1425 21.12 17.6 10.56 
1426 22.88 19.36 10.56 
1427 22.88 17.6 12.32 
1428 21.12 19.36 12.32 
1429 24.64 17.6 10.56 
1430 26.4 19.36 10.56 
1431 26.4 17.6 12.32 
1432 24.64 19.36 12.32 
1433 28.16 17.6 10.56 
1434 29.92 19.36 10.56 
1435 29.92 17.6 12.32 
1436 28.16 19.36 12.32 
1437 31.68 17.6 10.56 
1438 33.44 19.36 10.56 
1439 33.44 17.6 12.32 
1440 31.68 19.36 12.32 
1441 0 21.12 10.56 
1442 1.76 22.88 10.56 
1443 1.76 21.12 12.32 
1444 0 22.88 12.32 
1445 3.52 21.12 10.56 
1446 5.28 22.88 10.56 
1447 5.28 21.12 12.32 
1448 3.52 22.88 12.32 
1449 7.04 21.12 10.56 
1450 8.8 22.88 10.56 