
#units           real #or metal
#boundary        p p p
#atom_style      atomic
#read_data       sigma7.lammps
#mass            1 26.982  #Al

6048	atoms
1 atom types # Al
0 53.4379 xlo xhi
0 94.5572 ylo yhi
0 21.4228 zlo zhi

Atoms

1	1	50.5751782591	93.5062912792	0
2	1	52.4836594197	91.302541176	0
3	1	52.4836594197	83.5894158148	0
4	1	51.5294188394	88.5478062684	0
5	1	48.6666436606	87.9969160212	0
6	1	50.5751782591	85.793165918	0
7	1	51.8474812202	86.8950409696	2.3803087308
8	1	47.7124030803	92.9553064748	0
9	1	44.8496813394	92.4044162276	0
10	1	46.7581625	90.2006661244	0
11	1	50.8932406399	91.8534314232	2.3803087308
12	1	48.030518899	91.302541176	2.3803087308
13	1	49.9390000596	89.0987910728	2.3803087308
14	1	49.6208842409	90.7515563716	0
15	1	51.2113030207	90.2006661244	4.7606174616
16	1	53.1198376192	87.9969160212	4.7606174616
17	1	52.8017218005	89.64968132	2.3803087308
18	1	46.1219843005	93.5062912792	2.3803087308
19	1	49.3028218601	92.4044162276	4.7606174616
20	1	50.5751782591	93.5062912792	7.1409261924
21	1	52.4836594197	91.302541176	7.1409261924
22	1	52.165543601	92.9553064748	4.7606174616
23	1	50.5751782591	78.0800405568	0
24	1	52.4836594197	75.8762904536	0
25	1	49.6208842409	83.0385255676	0
26	1	46.7581625	82.4875407632	0
27	1	48.6666436606	80.28379066	0
28	1	52.8017218005	81.936650516	2.3803087308
29	1	49.9390000596	81.3856657116	2.3803087308
30	1	51.8474812202	79.1819156084	2.3803087308
31	1	51.5294188394	80.8347754644	0
32	1	53.1198376192	80.28379066	4.7606174616
33	1	45.8039219197	87.4459312168	0
34	1	42.9411467409	86.8950409696	0
35	1	44.8496813394	84.6912908664	0
36	1	48.9847594793	86.3440561652	2.3803087308
37	1	46.1219843005	85.793165918	2.3803087308
38	1	48.030518899	83.5894158148	2.3803087308
39	1	47.7124030803	85.2422756708	0
40	1	52.165543601	85.2422756708	4.7606174616
41	1	49.3028218601	84.6912908664	4.7606174616
42	1	51.2113030207	82.4875407632	4.7606174616
43	1	50.8932406399	84.1404006192	2.3803087308
44	1	52.4836594197	83.5894158148	7.1409261924
45	1	41.9869061606	91.8534314232	0
46	1	39.1241844197	91.302541176	0
47	1	41.0326655803	89.0987910728	0
48	1	45.1677437202	90.7515563716	2.3803087308
49	1	42.3050219793	90.2006661244	2.3803087308
50	1	44.2135031399	87.9969160212	2.3803087308
51	1	43.8954407591	89.64968132	0
52	1	48.3485812798	89.64968132	4.7606174616
53	1	45.485806101	89.0987910728	4.7606174616
54	1	47.3943406995	86.8950409696	4.7606174616
55	1	47.0762248808	88.5478062684	2.3803087308
56	1	51.5294188394	88.5478062684	7.1409261924
57	1	48.6666436606	87.9969160212	7.1409261924
58	1	50.5751782591	85.793165918	7.1409261924
59	1	50.2570624404	87.4459312168	4.7606174616
60	1	51.8474812202	86.8950409696	9.5212349232
61	1	37.2157032591	93.5062912792	0
62	1	40.3964873808	92.4044162276	2.3803087308
63	1	41.6688437798	93.5062912792	4.7606174616
64	1	43.5773249404	91.302541176	4.7606174616
65	1	43.2592625596	92.9553064748	2.3803087308
66	1	47.7124030803	92.9553064748	7.1409261924
67	1	44.8496813394	92.4044162276	7.1409261924
68	1	46.7581625	90.2006661244	7.1409261924
69	1	46.4401001192	91.8534314232	4.7606174616
70	1	50.8932406399	91.8534314232	9.5212349232
71	1	48.030518899	91.302541176	9.5212349232
72	1	49.9390000596	89.0987910728	9.5212349232
73	1	49.6208842409	90.7515563716	7.1409261924
74	1	51.2113030207	90.2006661244	11.9015650768
75	1	53.1198376192	87.9969160212	11.9015650768
76	1	52.8017218005	89.64968132	9.5212349232
77	1	46.1219843005	93.5062912792	9.5212349232
78	1	49.3028218601	92.4044162276	11.9015650768
79	1	50.5751782591	93.5062912792	14.2818738076
80	1	52.4836594197	91.302541176	14.2818738076
81	1	52.165543601	92.9553064748	11.9015650768
82	1	52.4836594197	68.1632596496	0
83	1	51.5294188394	73.1216501032	0
84	1	48.6666436606	72.5706652988	0
85	1	50.5751782591	70.3670097528	0
86	1	51.8474812202	71.4687902472	2.3803087308
87	1	47.7124030803	77.5291503096	0
88	1	44.8496813394	76.9781655052	0
89	1	46.7581625	74.774415402	0
90	1	50.8932406399	76.427275258	2.3803087308
91	1	48.030518899	75.8762904536	2.3803087308
92	1	49.9390000596	73.6725403504	2.3803087308
93	1	49.6208842409	75.3254002064	0
94	1	51.2113030207	74.774415402	4.7606174616
95	1	53.1198376192	72.5706652988	4.7606174616
96	1	52.8017218005	74.2235251548	2.3803087308
97	1	43.8954407591	81.936650516	0
98	1	41.0326655803	81.3856657116	0
99	1	42.9411467409	79.1819156084	0
100	1	47.0762248808	80.8347754644	2.3803087308
101	1	44.2135031399	80.28379066	2.3803087308
102	1	46.1219843005	78.0800405568	2.3803087308
103	1	45.8039219197	79.7329004128	0
104	1	50.2570624404	79.7329004128	4.7606174616
105	1	47.3943406995	79.1819156084	4.7606174616
106	1	49.3028218601	76.9781655052	4.7606174616
107	1	48.9847594793	78.6310253612	2.3803087308
108	1	50.5751782591	78.0800405568	7.1409261924
109	1	52.4836594197	75.8762904536	7.1409261924
110	1	52.165543601	77.5291503096	4.7606174616
111	1	40.078425	86.3440561652	0
112	1	37.2157032591	85.793165918	0
113	1	39.1241844197	83.5894158148	0
114	1	43.2592625596	85.2422756708	2.3803087308
115	1	40.3964873808	84.6912908664	2.3803087308
116	1	42.3050219793	82.4875407632	2.3803087308
117	1	41.9869061606	84.1404006192	0
118	1	46.4401001192	84.1404006192	4.7606174616
119	1	43.5773249404	83.5894158148	4.7606174616
120	1	45.485806101	81.3856657116	4.7606174616
121	1	45.1677437202	83.0385255676	2.3803087308
122	1	49.6208842409	83.0385255676	7.1409261924
123	1	46.7581625	82.4875407632	7.1409261924
124	1	48.6666436606	80.28379066	7.1409261924
125	1	48.3485812798	81.936650516	4.7606174616
126	1	52.8017218005	81.936650516	9.5212349232
127	1	49.9390000596	81.3856657116	9.5212349232
128	1	51.8474812202	79.1819156084	9.5212349232
129	1	51.5294188394	80.8347754644	7.1409261924
130	1	53.1198376192	80.28379066	11.9015650768
131	1	36.2614092409	90.7515563716	0
132	1	33.3986875	90.2006661244	0
133	1	35.3071686606	87.9969160212	0
134	1	39.4422468005	89.64968132	2.3803087308
135	1	36.5795250596	89.0987910728	2.3803087308
136	1	38.4880062202	86.8950409696	2.3803087308
137	1	38.1699438394	88.5478062684	0
138	1	42.6230843601	88.5478062684	4.7606174616
139	1	39.7603626192	87.9969160212	4.7606174616
140	1	41.6688437798	85.793165918	4.7606174616
141	1	41.350781399	87.4459312168	2.3803087308
142	1	45.8039219197	87.4459312168	7.1409261924
143	1	42.9411467409	86.8950409696	7.1409261924
144	1	44.8496813394	84.6912908664	7.1409261924
145	1	44.5315655207	86.3440561652	4.7606174616
146	1	48.9847594793	86.3440561652	9.5212349232
147	1	46.1219843005	85.793165918	9.5212349232
148	1	48.030518899	83.5894158148	9.5212349232
149	1	47.7124030803	85.2422756708	7.1409261924
150	1	52.165543601	85.2422756708	11.9015650768
151	1	49.3028218601	84.6912908664	11.9015650768
152	1	51.2113030207	82.4875407632	11.9015650768
153	1	50.8932406399	84.1404006192	9.5212349232
154	1	52.4836594197	83.5894158148	14.2818738076
155	1	31.4902063394	92.4044162276	0
156	1	32.7625093005	93.5062912792	2.3803087308
157	1	34.671043899	91.302541176	2.3803087308
158	1	34.3529280803	92.9553064748	0
159	1	38.806068601	92.9553064748	4.7606174616
160	1	35.9433468601	92.4044162276	4.7606174616
161	1	37.8518280207	90.2006661244	4.7606174616
162	1	37.5337656399	91.8534314232	2.3803087308
163	1	41.9869061606	91.8534314232	7.1409261924
164	1	39.1241844197	91.302541176	7.1409261924
165	1	41.0326655803	89.0987910728	7.1409261924
166	1	40.7146031995	90.7515563716	4.7606174616
167	1	45.1677437202	90.7515563716	9.5212349232
168	1	42.3050219793	90.2006661244	9.5212349232
169	1	44.2135031399	87.9969160212	9.5212349232
170	1	43.8954407591	89.64968132	7.1409261924
171	1	48.3485812798	89.64968132	11.9015650768
172	1	45.485806101	89.0987910728	11.9015650768
173	1	47.3943406995	86.8950409696	11.9015650768
174	1	47.0762248808	88.5478062684	9.5212349232
175	1	51.5294188394	88.5478062684	14.2818738076
176	1	48.6666436606	87.9969160212	14.2818738076
177	1	50.5751782591	85.793165918	14.2818738076
178	1	50.2570624404	87.4459312168	11.9015650768
179	1	51.8474812202	86.8950409696	16.6621825384
180	1	37.2157032591	93.5062912792	7.1409261924
181	1	40.3964873808	92.4044162276	9.5212349232
182	1	41.6688437798	93.5062912792	11.9015650768
183	1	43.5773249404	91.302541176	11.9015650768
184	1	43.2592625596	92.9553064748	9.5212349232
185	1	47.7124030803	92.9553064748	14.2818738076
186	1	44.8496813394	92.4044162276	14.2818738076
187	1	46.7581625	90.2006661244	14.2818738076
188	1	46.4401001192	91.8534314232	11.9015650768
189	1	50.8932406399	91.8534314232	16.6621825384
190	1	48.030518899	91.302541176	16.6621825384
191	1	49.9390000596	89.0987910728	16.6621825384
192	1	49.6208842409	90.7515563716	14.2818738076
193	1	51.2113030207	90.2006661244	19.0424912692
194	1	53.1198376192	87.9969160212	19.0424912692
195	1	52.8017218005	89.64968132	16.6621825384
196	1	46.1219843005	93.5062912792	16.6621825384
197	1	49.3028218601	92.4044162276	19.0424912692
198	1	52.165543601	92.9553064748	19.0424912692
199	1	50.5751782591	62.6538843916	0
200	1	52.4836594197	60.4501342884	0
201	1	49.6208842409	67.6122748452	0
202	1	46.7581625	67.061384598	0
203	1	48.6666436606	64.8576344948	0
204	1	52.8017218005	66.5103997936	2.3803087308
205	1	49.9390000596	65.9595095464	2.3803087308
206	1	51.8474812202	63.7557594432	2.3803087308
207	1	51.5294188394	65.408524742	0
208	1	53.1198376192	64.8576344948	4.7606174616
209	1	45.8039219197	72.0197750516	0
210	1	42.9411467409	71.4687902472	0
211	1	44.8496813394	69.2651347012	0
212	1	48.9847594793	70.9179	2.3803087308
213	1	46.1219843005	70.3670097528	2.3803087308
214	1	48.030518899	68.1632596496	2.3803087308
215	1	47.7124030803	69.8160249484	0
216	1	52.165543601	69.8160249484	4.7606174616
217	1	49.3028218601	69.2651347012	4.7606174616
218	1	51.2113030207	67.061384598	4.7606174616
219	1	50.8932406399	68.7141498968	2.3803087308
220	1	52.4836594197	68.1632596496	7.1409261924
221	1	41.9869061606	76.427275258	0
222	1	39.1241844197	75.8762904536	0
223	1	41.0326655803	73.6725403504	0
224	1	45.1677437202	75.3254002064	2.3803087308
225	1	42.3050219793	74.774415402	2.3803087308
226	1	44.2135031399	72.5706652988	2.3803087308
227	1	43.8954407591	74.2235251548	0
228	1	48.3485812798	74.2235251548	4.7606174616
229	1	45.485806101	73.6725403504	4.7606174616
230	1	47.3943406995	71.4687902472	4.7606174616
231	1	47.0762248808	73.1216501032	2.3803087308
232	1	51.5294188394	73.1216501032	7.1409261924
233	1	48.6666436606	72.5706652988	7.1409261924
234	1	50.5751782591	70.3670097528	7.1409261924
235	1	50.2570624404	72.0197750516	4.7606174616
236	1	51.8474812202	71.4687902472	9.5212349232
237	1	38.1699438394	80.8347754644	0
238	1	35.3071686606	80.28379066	0
239	1	37.2157032591	78.0800405568	0
240	1	41.350781399	79.7329004128	2.3803087308
241	1	38.4880062202	79.1819156084	2.3803087308
242	1	40.3964873808	76.9781655052	2.3803087308
243	1	40.078425	78.6310253612	0
244	1	44.5315655207	78.6310253612	4.7606174616
245	1	41.6688437798	78.0800405568	4.7606174616
246	1	43.5773249404	75.8762904536	4.7606174616
247	1	43.2592625596	77.5291503096	2.3803087308
248	1	47.7124030803	77.5291503096	7.1409261924
249	1	44.8496813394	76.9781655052	7.1409261924
250	1	46.7581625	74.774415402	7.1409261924
251	1	46.4401001192	76.427275258	4.7606174616
252	1	50.8932406399	76.427275258	9.5212349232
253	1	48.030518899	75.8762904536	9.5212349232
254	1	49.9390000596	73.6725403504	9.5212349232
255	1	49.6208842409	75.3254002064	7.1409261924
256	1	51.2113030207	74.774415402	11.9015650768
257	1	53.1198376192	72.5706652988	11.9015650768
258	1	52.8017218005	74.2235251548	9.5212349232
259	1	34.3529280803	85.2422756708	0
260	1	31.4902063394	84.6912908664	0
261	1	33.3986875	82.4875407632	0
262	1	37.5337656399	84.1404006192	2.3803087308
263	1	34.671043899	83.5894158148	2.3803087308
264	1	36.5795250596	81.3856657116	2.3803087308
265	1	36.2614092409	83.0385255676	0
266	1	40.7146031995	83.0385255676	4.7606174616
267	1	37.8518280207	82.4875407632	4.7606174616
268	1	39.7603626192	80.28379066	4.7606174616
269	1	39.4422468005	81.936650516	2.3803087308
270	1	43.8954407591	81.936650516	7.1409261924
271	1	41.0326655803	81.3856657116	7.1409261924
272	1	42.9411467409	79.1819156084	7.1409261924
273	1	42.6230843601	80.8347754644	4.7606174616
274	1	47.0762248808	80.8347754644	9.5212349232
275	1	44.2135031399	80.28379066	9.5212349232
276	1	46.1219843005	78.0800405568	9.5212349232
277	1	45.8039219197	79.7329004128	7.1409261924
278	1	50.2570624404	79.7329004128	11.9015650768
279	1	47.3943406995	79.1819156084	11.9015650768
280	1	49.3028218601	76.9781655052	11.9015650768
281	1	48.9847594793	78.6310253612	9.5212349232
282	1	50.5751782591	78.0800405568	14.2818738076
283	1	52.4836594197	75.8762904536	14.2818738076
284	1	52.165543601	77.5291503096	11.9015650768
285	1	30.5359657591	89.64968132	0
286	1	27.6731905803	89.0987910728	0
287	1	29.5816717409	86.8950409696	0
288	1	33.7167498808	88.5478062684	2.3803087308
289	1	30.8540281399	87.9969160212	2.3803087308
290	1	32.7625093005	85.793165918	2.3803087308
291	1	32.4444469197	87.4459312168	0
292	1	36.8975874404	87.4459312168	4.7606174616
293	1	34.0348656995	86.8950409696	4.7606174616
294	1	35.9433468601	84.6912908664	4.7606174616
295	1	35.6252844793	86.3440561652	2.3803087308
296	1	40.078425	86.3440561652	7.1409261924
297	1	37.2157032591	85.793165918	7.1409261924
298	1	39.1241844197	83.5894158148	7.1409261924
299	1	38.806068601	85.2422756708	4.7606174616
300	1	43.2592625596	85.2422756708	9.5212349232
301	1	40.3964873808	84.6912908664	9.5212349232
302	1	42.3050219793	82.4875407632	9.5212349232
303	1	41.9869061606	84.1404006192	7.1409261924
304	1	46.4401001192	84.1404006192	11.9015650768
305	1	43.5773249404	83.5894158148	11.9015650768
306	1	45.485806101	81.3856657116	11.9015650768
307	1	45.1677437202	83.0385255676	9.5212349232
308	1	49.6208842409	83.0385255676	14.2818738076
309	1	46.7581625	82.4875407632	14.2818738076
310	1	48.6666436606	80.28379066	14.2818738076
311	1	48.3485812798	81.936650516	11.9015650768
312	1	52.8017218005	81.936650516	16.6621825384
313	1	49.9390000596	81.3856657116	16.6621825384
314	1	51.8474812202	79.1819156084	16.6621825384
315	1	51.5294188394	80.8347754644	14.2818738076
316	1	53.1198376192	80.28379066	19.0424912692
317	1	23.8562282591	93.5062912792	0
318	1	25.7647094197	91.302541176	0
319	1	29.8997875596	92.9553064748	2.3803087308
320	1	27.0370123808	92.4044162276	2.3803087308
321	1	28.9455469793	90.2006661244	2.3803087308
322	1	28.6274311606	91.8534314232	0
323	1	33.0806251192	91.8534314232	4.7606174616
324	1	30.2178499404	91.302541176	4.7606174616
325	1	32.126331101	89.0987910728	4.7606174616
326	1	31.8082687202	90.7515563716	2.3803087308
327	1	36.2614092409	90.7515563716	7.1409261924
328	1	33.3986875	90.2006661244	7.1409261924
329	1	35.3071686606	87.9969160212	7.1409261924
330	1	34.9891062798	89.64968132	4.7606174616
331	1	39.4422468005	89.64968132	9.5212349232
332	1	36.5795250596	89.0987910728	9.5212349232
333	1	38.4880062202	86.8950409696	9.5212349232
334	1	38.1699438394	88.5478062684	7.1409261924
335	1	42.6230843601	88.5478062684	11.9015650768
336	1	39.7603626192	87.9969160212	11.9015650768
337	1	41.6688437798	85.793165918	11.9015650768
338	1	41.350781399	87.4459312168	9.5212349232
339	1	45.8039219197	87.4459312168	14.2818738076
340	1	42.9411467409	86.8950409696	14.2818738076
341	1	44.8496813394	84.6912908664	14.2818738076
342	1	44.5315655207	86.3440561652	11.9015650768
343	1	48.9847594793	86.3440561652	16.6621825384
344	1	46.1219843005	85.793165918	16.6621825384
345	1	48.030518899	83.5894158148	16.6621825384
346	1	47.7124030803	85.2422756708	14.2818738076
347	1	52.165543601	85.2422756708	19.0424912692
348	1	49.3028218601	84.6912908664	19.0424912692
349	1	51.2113030207	82.4875407632	19.0424912692
350	1	50.8932406399	84.1404006192	16.6621825384
351	1	28.3093687798	93.5062912792	4.7606174616
352	1	31.4902063394	92.4044162276	7.1409261924
353	1	32.7625093005	93.5062912792	9.5212349232
354	1	34.671043899	91.302541176	9.5212349232
355	1	34.3529280803	92.9553064748	7.1409261924
356	1	38.806068601	92.9553064748	11.9015650768
357	1	35.9433468601	92.4044162276	11.9015650768
358	1	37.8518280207	90.2006661244	11.9015650768
359	1	37.5337656399	91.8534314232	9.5212349232
360	1	41.9869061606	91.8534314232	14.2818738076
361	1	39.1241844197	91.302541176	14.2818738076
362	1	41.0326655803	89.0987910728	14.2818738076
363	1	40.7146031995	90.7515563716	11.9015650768
364	1	45.1677437202	90.7515563716	16.6621825384
365	1	42.3050219793	90.2006661244	16.6621825384
366	1	44.2135031399	87.9969160212	16.6621825384
367	1	43.8954407591	89.64968132	14.2818738076
368	1	48.3485812798	89.64968132	19.0424912692
369	1	45.485806101	89.0987910728	19.0424912692
370	1	47.3943406995	86.8950409696	19.0424912692
371	1	47.0762248808	88.5478062684	16.6621825384
372	1	50.2570624404	87.4459312168	19.0424912692
373	1	37.2157032591	93.5062912792	14.2818738076
374	1	40.3964873808	92.4044162276	16.6621825384
375	1	41.6688437798	93.5062912792	19.0424912692
376	1	43.5773249404	91.302541176	19.0424912692
377	1	43.2592625596	92.9553064748	16.6621825384
378	1	46.4401001192	91.8534314232	19.0424912692
379	1	52.4836594197	52.7370089272	4.1359071908e-15
380	1	51.5294188394	57.6953993808	4.1359071908e-15
381	1	48.6666436606	57.1445091336	4.1359071908e-15
382	1	50.5751782591	54.9407590304	0
383	1	51.8474812202	56.042634082	2.3803087308
384	1	47.7124030803	62.1028995872	0
385	1	44.8496813394	61.55200934	0
386	1	46.7581625	59.3482592368	0
387	1	50.8932406399	61.0010245356	2.3803087308
388	1	48.030518899	60.4501342884	2.3803087308
389	1	49.9390000596	58.2463841852	2.3803087308
390	1	49.6208842409	59.899149484	0
391	1	51.2113030207	59.3482592368	4.7606174616
392	1	53.1198376192	57.1445091336	4.7606174616
393	1	52.8017218005	58.7972744324	2.3803087308
394	1	43.8954407591	66.5103997936	0
395	1	41.0326655803	65.9595095464	0
396	1	42.9411467409	63.7557594432	0
397	1	47.0762248808	65.408524742	2.3803087308
398	1	44.2135031399	64.8576344948	2.3803087308
399	1	46.1219843005	62.6538843916	2.3803087308
400	1	45.8039219197	64.3066496904	0
401	1	50.2570624404	64.3066496904	4.7606174616
402	1	47.3943406995	63.7557594432	4.7606174616
403	1	49.3028218601	61.55200934	4.7606174616
404	1	48.9847594793	63.2047746388	2.3803087308
405	1	50.5751782591	62.6538843916	7.1409261924
406	1	52.4836594197	60.4501342884	7.1409261924
407	1	52.165543601	62.1028995872	4.7606174616
408	1	40.078425	70.9179	0
409	1	37.2157032591	70.3670097528	0
410	1	39.1241844197	68.1632596496	0
411	1	43.2592625596	69.8160249484	2.3803087308
412	1	40.3964873808	69.2651347012	2.3803087308
413	1	42.3050219793	67.061384598	2.3803087308
414	1	41.9869061606	68.7141498968	0
415	1	46.4401001192	68.7141498968	4.7606174616
416	1	43.5773249404	68.1632596496	4.7606174616
417	1	45.485806101	65.9595095464	4.7606174616
418	1	45.1677437202	67.6122748452	2.3803087308
419	1	49.6208842409	67.6122748452	7.1409261924
420	1	46.7581625	67.061384598	7.1409261924
421	1	48.6666436606	64.8576344948	7.1409261924
422	1	48.3485812798	66.5103997936	4.7606174616
423	1	52.8017218005	66.5103997936	9.5212349232
424	1	49.9390000596	65.9595095464	9.5212349232
425	1	51.8474812202	63.7557594432	9.5212349232
426	1	51.5294188394	65.408524742	7.1409261924
427	1	53.1198376192	64.8576344948	11.9015650768
428	1	36.2614092409	75.3254002064	0
429	1	33.3986875	74.774415402	0
430	1	35.3071686606	72.5706652988	0
431	1	39.4422468005	74.2235251548	2.3803087308
432	1	36.5795250596	73.6725403504	2.3803087308
433	1	38.4880062202	71.4687902472	2.3803087308
434	1	38.1699438394	73.1216501032	0
435	1	42.6230843601	73.1216501032	4.7606174616
436	1	39.7603626192	72.5706652988	4.7606174616
437	1	41.6688437798	70.3670097528	4.7606174616
438	1	41.350781399	72.0197750516	2.3803087308
439	1	45.8039219197	72.0197750516	7.1409261924
440	1	42.9411467409	71.4687902472	7.1409261924
441	1	44.8496813394	69.2651347012	7.1409261924
442	1	44.5315655207	70.9179	4.7606174616
443	1	48.9847594793	70.9179	9.5212349232
444	1	46.1219843005	70.3670097528	9.5212349232
445	1	48.030518899	68.1632596496	9.5212349232
446	1	47.7124030803	69.8160249484	7.1409261924
447	1	52.165543601	69.8160249484	11.9015650768
448	1	49.3028218601	69.2651347012	11.9015650768
449	1	51.2113030207	67.061384598	11.9015650768
450	1	50.8932406399	68.7141498968	9.5212349232
451	1	52.4836594197	68.1632596496	14.2818738076
452	1	32.4444469197	79.7329004128	0
453	1	29.5816717409	79.1819156084	0
454	1	31.4902063394	76.9781655052	0
455	1	35.6252844793	78.6310253612	2.3803087308
456	1	32.7625093005	78.0800405568	2.3803087308
457	1	34.671043899	75.8762904536	2.3803087308
458	1	34.3529280803	77.5291503096	0
459	1	38.806068601	77.5291503096	4.7606174616
460	1	35.9433468601	76.9781655052	4.7606174616
461	1	37.8518280207	74.774415402	4.7606174616
462	1	37.5337656399	76.427275258	2.3803087308
463	1	41.9869061606	76.427275258	7.1409261924
464	1	39.1241844197	75.8762904536	7.1409261924
465	1	41.0326655803	73.6725403504	7.1409261924
466	1	40.7146031995	75.3254002064	4.7606174616
467	1	45.1677437202	75.3254002064	9.5212349232
468	1	42.3050219793	74.774415402	9.5212349232
469	1	44.2135031399	72.5706652988	9.5212349232
470	1	43.8954407591	74.2235251548	7.1409261924
471	1	48.3485812798	74.2235251548	11.9015650768
472	1	45.485806101	73.6725403504	11.9015650768
473	1	47.3943406995	71.4687902472	11.9015650768
474	1	47.0762248808	73.1216501032	9.5212349232
475	1	51.5294188394	73.1216501032	14.2818738076
476	1	48.6666436606	72.5706652988	14.2818738076
477	1	50.5751782591	70.3670097528	14.2818738076
478	1	50.2570624404	72.0197750516	11.9015650768
479	1	51.8474812202	71.4687902472	16.6621825384
480	1	28.6274311606	84.1404006192	0
481	1	25.7647094197	83.5894158148	0
482	1	27.6731905803	81.3856657116	0
483	1	31.8082687202	83.0385255676	2.3803087308
484	1	28.9455469793	82.4875407632	2.3803087308
485	1	30.8540281399	80.28379066	2.3803087308
486	1	30.5359657591	81.936650516	0
487	1	34.9891062798	81.936650516	4.7606174616
488	1	32.126331101	81.3856657116	4.7606174616
489	1	34.0348656995	79.1819156084	4.7606174616
490	1	33.7167498808	80.8347754644	2.3803087308
491	1	38.1699438394	80.8347754644	7.1409261924
492	1	35.3071686606	80.28379066	7.1409261924
493	1	37.2157032591	78.0800405568	7.1409261924
494	1	36.8975874404	79.7329004128	4.7606174616
495	1	41.350781399	79.7329004128	9.5212349232
496	1	38.4880062202	79.1819156084	9.5212349232
497	1	40.3964873808	76.9781655052	9.5212349232
498	1	40.078425	78.6310253612	7.1409261924
499	1	44.5315655207	78.6310253612	11.9015650768
500	1	41.6688437798	78.0800405568	11.9015650768
501	1	43.5773249404	75.8762904536	11.9015650768
502	1	43.2592625596	77.5291503096	9.5212349232
503	1	47.7124030803	77.5291503096	14.2818738076
504	1	44.8496813394	76.9781655052	14.2818738076
505	1	46.7581625	74.774415402	14.2818738076
506	1	46.4401001192	76.427275258	11.9015650768
507	1	50.8932406399	76.427275258	16.6621825384
508	1	48.030518899	75.8762904536	16.6621825384
509	1	49.9390000596	73.6725403504	16.6621825384
510	1	49.6208842409	75.3254002064	14.2818738076
511	1	51.2113030207	74.774415402	19.0424912692
512	1	53.1198376192	72.5706652988	19.0424912692
513	1	52.8017218005	74.2235251548	16.6621825384
514	1	24.8104688394	88.5478062684	0
515	1	21.9476936606	87.9969160212	0
516	1	23.8562282591	85.793165918	0
517	1	27.991306399	87.4459312168	2.3803087308
518	1	25.1285312202	86.8950409696	2.3803087308
519	1	27.0370123808	84.6912908664	2.3803087308
520	1	26.71895	86.3440561652	0
521	1	31.1720905207	86.3440561652	4.7606174616
522	1	28.3093687798	85.793165918	4.7606174616
523	1	30.2178499404	83.5894158148	4.7606174616
524	1	29.8997875596	85.2422756708	2.3803087308
525	1	34.3529280803	85.2422756708	7.1409261924
526	1	31.4902063394	84.6912908664	7.1409261924
527	1	33.3986875	82.4875407632	7.1409261924
528	1	33.0806251192	84.1404006192	4.7606174616
529	1	37.5337656399	84.1404006192	9.5212349232
530	1	34.671043899	83.5894158148	9.5212349232
531	1	36.5795250596	81.3856657116	9.5212349232
532	1	36.2614092409	83.0385255676	7.1409261924
533	1	40.7146031995	83.0385255676	11.9015650768
534	1	37.8518280207	82.4875407632	11.9015650768
535	1	39.7603626192	80.28379066	11.9015650768
536	1	39.4422468005	81.936650516	9.5212349232
537	1	43.8954407591	81.936650516	14.2818738076
538	1	41.0326655803	81.3856657116	14.2818738076
539	1	42.9411467409	79.1819156084	14.2818738076
540	1	42.6230843601	80.8347754644	11.9015650768
541	1	47.0762248808	80.8347754644	16.6621825384
542	1	44.2135031399	80.28379066	16.6621825384
543	1	46.1219843005	78.0800405568	16.6621825384
544	1	45.8039219197	79.7329004128	14.2818738076
545	1	50.2570624404	79.7329004128	19.0424912692
546	1	47.3943406995	79.1819156084	19.0424912692
547	1	49.3028218601	76.9781655052	19.0424912692
548	1	48.9847594793	78.6310253612	16.6621825384
549	1	52.165543601	77.5291503096	19.0424912692
550	1	20.9934530803	92.9553064748	0
551	1	18.1307313394	92.4044162276	0
552	1	20.0392125	90.2006661244	0
553	1	24.1742906399	91.8534314232	2.3803087308
554	1	21.311568899	91.302541176	2.3803087308
555	1	23.2200500596	89.0987910728	2.3803087308
556	1	22.9019342409	90.7515563716	0
557	1	27.3551281995	90.7515563716	4.7606174616
558	1	24.4923530207	90.2006661244	4.7606174616
559	1	26.4008876192	87.9969160212	4.7606174616
560	1	26.0827718005	89.64968132	2.3803087308
561	1	30.5359657591	89.64968132	7.1409261924
562	1	27.6731905803	89.0987910728	7.1409261924
563	1	29.5816717409	86.8950409696	7.1409261924
564	1	29.2636093601	88.5478062684	4.7606174616
565	1	33.7167498808	88.5478062684	9.5212349232
566	1	30.8540281399	87.9969160212	9.5212349232
567	1	32.7625093005	85.793165918	9.5212349232
568	1	32.4444469197	87.4459312168	7.1409261924
569	1	36.8975874404	87.4459312168	11.9015650768
570	1	34.0348656995	86.8950409696	11.9015650768
571	1	35.9433468601	84.6912908664	11.9015650768
572	1	35.6252844793	86.3440561652	9.5212349232
573	1	40.078425	86.3440561652	14.2818738076
574	1	37.2157032591	85.793165918	14.2818738076
575	1	39.1241844197	83.5894158148	14.2818738076
576	1	38.806068601	85.2422756708	11.9015650768
577	1	43.2592625596	85.2422756708	16.6621825384
578	1	40.3964873808	84.6912908664	16.6621825384
579	1	42.3050219793	82.4875407632	16.6621825384
580	1	41.9869061606	84.1404006192	14.2818738076
581	1	46.4401001192	84.1404006192	19.0424912692
582	1	43.5773249404	83.5894158148	19.0424912692
583	1	45.485806101	81.3856657116	19.0424912692
584	1	45.1677437202	83.0385255676	16.6621825384
585	1	48.3485812798	81.936650516	19.0424912692
586	1	19.4030343005	93.5062912792	2.3803087308
587	1	22.5838718601	92.4044162276	4.7606174616
588	1	23.8562282591	93.5062912792	7.1409261924
589	1	25.7647094197	91.302541176	7.1409261924
590	1	25.446593601	92.9553064748	4.7606174616
591	1	29.8997875596	92.9553064748	9.5212349232
592	1	27.0370123808	92.4044162276	9.5212349232
593	1	28.9455469793	90.2006661244	9.5212349232
594	1	28.6274311606	91.8534314232	7.1409261924
595	1	33.0806251192	91.8534314232	11.9015650768
596	1	30.2178499404	91.302541176	11.9015650768
597	1	32.126331101	89.0987910728	11.9015650768
598	1	31.8082687202	90.7515563716	9.5212349232
599	1	36.2614092409	90.7515563716	14.2818738076
600	1	33.3986875	90.2006661244	14.2818738076
601	1	35.3071686606	87.9969160212	14.2818738076
602	1	34.9891062798	89.64968132	11.9015650768
603	1	39.4422468005	89.64968132	16.6621825384
604	1	36.5795250596	89.0987910728	16.6621825384
605	1	38.4880062202	86.8950409696	16.6621825384
606	1	38.1699438394	88.5478062684	14.2818738076
607	1	42.6230843601	88.5478062684	19.0424912692
608	1	39.7603626192	87.9969160212	19.0424912692
609	1	41.6688437798	85.793165918	19.0424912692
610	1	41.350781399	87.4459312168	16.6621825384
611	1	44.5315655207	86.3440561652	19.0424912692
612	1	28.3093687798	93.5062912792	11.9015650768
613	1	31.4902063394	92.4044162276	14.2818738076
614	1	32.7625093005	93.5062912792	16.6621825384
615	1	34.671043899	91.302541176	16.6621825384
616	1	34.3529280803	92.9553064748	14.2818738076
617	1	38.806068601	92.9553064748	19.0424912692
618	1	35.9433468601	92.4044162276	19.0424912692
619	1	37.8518280207	90.2006661244	19.0424912692
620	1	37.5337656399	91.8534314232	16.6621825384
621	1	40.7146031995	90.7515563716	19.0424912692
622	1	49.6208842409	52.18611868	0
623	1	46.7581625	51.6351338756	0
624	1	48.6666436606	49.4313837724	0
625	1	52.8017218005	51.0842436284	2.3803087308
626	1	49.9390000596	50.533258824	2.3803087308
627	1	51.8474812202	48.3295087208	2.3803087308
628	1	51.5294188394	49.9823685768	0
629	1	53.1198376192	49.4313837724	4.7606174616
630	1	45.8039219197	56.5935243292	0
631	1	42.9411467409	56.042634082	0
632	1	44.8496813394	53.8388839788	0
633	1	48.9847594793	55.4917438348	2.3803087308
634	1	46.1219843005	54.9407590304	2.3803087308
635	1	48.030518899	52.7370089272	2.3803087308
636	1	47.7124030803	54.3898687832	0
637	1	52.165543601	54.3898687832	4.7606174616
638	1	49.3028218601	53.8388839788	4.7606174616
639	1	51.2113030207	51.6351338756	4.7606174616
640	1	50.8932406399	53.2879937316	2.3803087308
641	1	52.4836594197	52.7370089272	7.1409261924
642	1	41.9869061606	61.0010245356	0
643	1	39.1241844197	60.4501342884	0
644	1	41.0326655803	58.2463841852	0
645	1	45.1677437202	59.899149484	2.3803087308
646	1	42.3050219793	59.3482592368	2.3803087308
647	1	44.2135031399	57.1445091336	2.3803087308
648	1	43.8954407591	58.7972744324	0
649	1	48.3485812798	58.7972744324	4.7606174616
650	1	45.485806101	58.2463841852	4.7606174616
651	1	47.3943406995	56.042634082	4.7606174616
652	1	47.0762248808	57.6953993808	2.3803087308
653	1	51.5294188394	57.6953993808	7.1409261924
654	1	48.6666436606	57.1445091336	7.1409261924
655	1	50.5751782591	54.9407590304	7.1409261924
656	1	50.2570624404	56.5935243292	4.7606174616
657	1	51.8474812202	56.042634082	9.5212349232
658	1	38.1699438394	65.408524742	0
659	1	35.3071686606	64.8576344948	0
660	1	37.2157032591	62.6538843916	0
661	1	41.350781399	64.3066496904	2.3803087308
662	1	38.4880062202	63.7557594432	2.3803087308
663	1	40.3964873808	61.55200934	2.3803087308
664	1	40.078425	63.2047746388	0
665	1	44.5315655207	63.2047746388	4.7606174616
666	1	41.6688437798	62.6538843916	4.7606174616
667	1	43.5773249404	60.4501342884	4.7606174616